# vtk DataFile Version 2.0
step 15 time 6.250000e-02 normalized time 6.250000e-01, generated by simple.py
ASCII
DATASET UNSTRUCTURED_GRID

POINTS 201 float
0.000000e+00 0.000000e+00 0.000000e+00
1.000000e+00 0.000000e+00 0.000000e+00
2.000000e+00 0.000000e+00 0.000000e+00
1.000000e-02 0.000000e+00 0.000000e+00
2.000000e-02 0.000000e+00 0.000000e+00
3.000000e-02 0.000000e+00 0.000000e+00
4.000000e-02 0.000000e+00 0.000000e+00
5.000000e-02 0.000000e+00 0.000000e+00
6.000000e-02 0.000000e+00 0.000000e+00
7.000000e-02 0.000000e+00 0.000000e+00
8.000000e-02 0.000000e+00 0.000000e+00
9.000000e-02 0.000000e+00 0.000000e+00
1.000000e-01 0.000000e+00 0.000000e+00
1.100000e-01 0.000000e+00 0.000000e+00
1.200000e-01 0.000000e+00 0.000000e+00
1.300000e-01 0.000000e+00 0.000000e+00
1.400000e-01 0.000000e+00 0.000000e+00
1.500000e-01 0.000000e+00 0.000000e+00
1.600000e-01 0.000000e+00 0.000000e+00
1.700000e-01 0.000000e+00 0.000000e+00
1.800000e-01 0.000000e+00 0.000000e+00
1.900000e-01 0.000000e+00 0.000000e+00
2.000000e-01 0.000000e+00 0.000000e+00
2.100000e-01 0.000000e+00 0.000000e+00
2.200000e-01 0.000000e+00 0.000000e+00
2.300000e-01 0.000000e+00 0.000000e+00
2.400000e-01 0.000000e+00 0.000000e+00
2.500000e-01 0.000000e+00 0.000000e+00
2.600000e-01 0.000000e+00 0.000000e+00
2.700000e-01 0.000000e+00 0.000000e+00
2.800000e-01 0.000000e+00 0.000000e+00
2.900000e-01 0.000000e+00 0.000000e+00
3.000000e-01 0.000000e+00 0.000000e+00
3.100000e-01 0.000000e+00 0.000000e+00
3.200000e-01 0.000000e+00 0.000000e+00
3.300000e-01 0.000000e+00 0.000000e+00
3.400000e-01 0.000000e+00 0.000000e+00
3.500000e-01 0.000000e+00 0.000000e+00
3.600000e-01 0.000000e+00 0.000000e+00
3.700000e-01 0.000000e+00 0.000000e+00
3.800000e-01 0.000000e+00 0.000000e+00
3.900000e-01 0.000000e+00 0.000000e+00
4.000000e-01 0.000000e+00 0.000000e+00
4.100000e-01 0.000000e+00 0.000000e+00
4.200000e-01 0.000000e+00 0.000000e+00
4.300000e-01 0.000000e+00 0.000000e+00
4.400000e-01 0.000000e+00 0.000000e+00
4.500000e-01 0.000000e+00 0.000000e+00
4.600000e-01 0.000000e+00 0.000000e+00
4.700000e-01 0.000000e+00 0.000000e+00
4.800000e-01 0.000000e+00 0.000000e+00
4.900000e-01 0.000000e+00 0.000000e+00
5.000000e-01 0.000000e+00 0.000000e+00
5.100000e-01 0.000000e+00 0.000000e+00
5.200000e-01 0.000000e+00 0.000000e+00
5.300000e-01 0.000000e+00 0.000000e+00
5.400000e-01 0.000000e+00 0.000000e+00
5.500000e-01 0.000000e+00 0.000000e+00
5.600000e-01 0.000000e+00 0.000000e+00
5.700000e-01 0.000000e+00 0.000000e+00
5.800000e-01 0.000000e+00 0.000000e+00
5.900000e-01 0.000000e+00 0.000000e+00
6.000000e-01 0.000000e+00 0.000000e+00
6.100000e-01 0.000000e+00 0.000000e+00
6.200000e-01 0.000000e+00 0.000000e+00
6.300000e-01 0.000000e+00 0.000000e+00
6.400000e-01 0.000000e+00 0.000000e+00
6.500000e-01 0.000000e+00 0.000000e+00
6.600000e-01 0.000000e+00 0.000000e+00
6.700000e-01 0.000000e+00 0.000000e+00
6.800000e-01 0.000000e+00 0.000000e+00
6.900000e-01 0.000000e+00 0.000000e+00
7.000000e-01 0.000000e+00 0.000000e+00
7.100000e-01 0.000000e+00 0.000000e+00
7.200000e-01 0.000000e+00 0.000000e+00
7.300000e-01 0.000000e+00 0.000000e+00
7.400000e-01 0.000000e+00 0.000000e+00
7.500000e-01 0.000000e+00 0.000000e+00
7.600000e-01 0.000000e+00 0.000000e+00
7.700000e-01 0.000000e+00 0.000000e+00
7.800000e-01 0.000000e+00 0.000000e+00
7.900000e-01 0.000000e+00 0.000000e+00
8.000000e-01 0.000000e+00 0.000000e+00
8.100000e-01 0.000000e+00 0.000000e+00
8.200000e-01 0.000000e+00 0.000000e+00
8.300000e-01 0.000000e+00 0.000000e+00
8.400000e-01 0.000000e+00 0.000000e+00
8.500000e-01 0.000000e+00 0.000000e+00
8.600000e-01 0.000000e+00 0.000000e+00
8.700000e-01 0.000000e+00 0.000000e+00
8.800000e-01 0.000000e+00 0.000000e+00
8.900000e-01 0.000000e+00 0.000000e+00
9.000000e-01 0.000000e+00 0.000000e+00
9.100000e-01 0.000000e+00 0.000000e+00
9.200000e-01 0.000000e+00 0.000000e+00
9.300000e-01 0.000000e+00 0.000000e+00
9.400000e-01 0.000000e+00 0.000000e+00
9.500000e-01 0.000000e+00 0.000000e+00
9.600000e-01 0.000000e+00 0.000000e+00
9.700000e-01 0.000000e+00 0.000000e+00
9.800000e-01 0.000000e+00 0.000000e+00
9.900000e-01 0.000000e+00 0.000000e+00
1.010000e+00 0.000000e+00 0.000000e+00
1.020000e+00 0.000000e+00 0.000000e+00
1.030000e+00 0.000000e+00 0.000000e+00
1.040000e+00 0.000000e+00 0.000000e+00
1.050000e+00 0.000000e+00 0.000000e+00
1.060000e+00 0.000000e+00 0.000000e+00
1.070000e+00 0.000000e+00 0.000000e+00
1.080000e+00 0.000000e+00 0.000000e+00
1.090000e+00 0.000000e+00 0.000000e+00
1.100000e+00 0.000000e+00 0.000000e+00
1.110000e+00 0.000000e+00 0.000000e+00
1.120000e+00 0.000000e+00 0.000000e+00
1.130000e+00 0.000000e+00 0.000000e+00
1.140000e+00 0.000000e+00 0.000000e+00
1.150000e+00 0.000000e+00 0.000000e+00
1.160000e+00 0.000000e+00 0.000000e+00
1.170000e+00 0.000000e+00 0.000000e+00
1.180000e+00 0.000000e+00 0.000000e+00
1.190000e+00 0.000000e+00 0.000000e+00
1.200000e+00 0.000000e+00 0.000000e+00
1.210000e+00 0.000000e+00 0.000000e+00
1.220000e+00 0.000000e+00 0.000000e+00
1.230000e+00 0.000000e+00 0.000000e+00
1.240000e+00 0.000000e+00 0.000000e+00
1.250000e+00 0.000000e+00 0.000000e+00
1.260000e+00 0.000000e+00 0.000000e+00
1.270000e+00 0.000000e+00 0.000000e+00
1.280000e+00 0.000000e+00 0.000000e+00
1.290000e+00 0.000000e+00 0.000000e+00
1.300000e+00 0.000000e+00 0.000000e+00
1.310000e+00 0.000000e+00 0.000000e+00
1.320000e+00 0.000000e+00 0.000000e+00
1.330000e+00 0.000000e+00 0.000000e+00
1.340000e+00 0.000000e+00 0.000000e+00
1.350000e+00 0.000000e+00 0.000000e+00
1.360000e+00 0.000000e+00 0.000000e+00
1.370000e+00 0.000000e+00 0.000000e+00
1.380000e+00 0.000000e+00 0.000000e+00
1.390000e+00 0.000000e+00 0.000000e+00
1.400000e+00 0.000000e+00 0.000000e+00
1.410000e+00 0.000000e+00 0.000000e+00
1.420000e+00 0.000000e+00 0.000000e+00
1.430000e+00 0.000000e+00 0.000000e+00
1.440000e+00 0.000000e+00 0.000000e+00
1.450000e+00 0.000000e+00 0.000000e+00
1.460000e+00 0.000000e+00 0.000000e+00
1.470000e+00 0.000000e+00 0.000000e+00
1.480000e+00 0.000000e+00 0.000000e+00
1.490000e+00 0.000000e+00 0.000000e+00
1.500000e+00 0.000000e+00 0.000000e+00
1.510000e+00 0.000000e+00 0.000000e+00
1.520000e+00 0.000000e+00 0.000000e+00
1.530000e+00 0.000000e+00 0.000000e+00
1.540000e+00 0.000000e+00 0.000000e+00
1.550000e+00 0.000000e+00 0.000000e+00
1.560000e+00 0.000000e+00 0.000000e+00
1.570000e+00 0.000000e+00 0.000000e+00
1.580000e+00 0.000000e+00 0.000000e+00
1.590000e+00 0.000000e+00 0.000000e+00
1.600000e+00 0.000000e+00 0.000000e+00
1.610000e+00 0.000000e+00 0.000000e+00
1.620000e+00 0.000000e+00 0.000000e+00
1.630000e+00 0.000000e+00 0.000000e+00
1.640000e+00 0.000000e+00 0.000000e+00
1.650000e+00 0.000000e+00 0.000000e+00
1.660000e+00 0.000000e+00 0.000000e+00
1.670000e+00 0.000000e+00 0.000000e+00
1.680000e+00 0.000000e+00 0.000000e+00
1.690000e+00 0.000000e+00 0.000000e+00
1.700000e+00 0.000000e+00 0.000000e+00
1.710000e+00 0.000000e+00 0.000000e+00
1.720000e+00 0.000000e+00 0.000000e+00
1.730000e+00 0.000000e+00 0.000000e+00
1.740000e+00 0.000000e+00 0.000000e+00
1.750000e+00 0.000000e+00 0.000000e+00
1.760000e+00 0.000000e+00 0.000000e+00
1.770000e+00 0.000000e+00 0.000000e+00
1.780000e+00 0.000000e+00 0.000000e+00
1.790000e+00 0.000000e+00 0.000000e+00
1.800000e+00 0.000000e+00 0.000000e+00
1.810000e+00 0.000000e+00 0.000000e+00
1.820000e+00 0.000000e+00 0.000000e+00
1.830000e+00 0.000000e+00 0.000000e+00
1.840000e+00 0.000000e+00 0.000000e+00
1.850000e+00 0.000000e+00 0.000000e+00
1.860000e+00 0.000000e+00 0.000000e+00
1.870000e+00 0.000000e+00 0.000000e+00
1.880000e+00 0.000000e+00 0.000000e+00
1.890000e+00 0.000000e+00 0.000000e+00
1.900000e+00 0.000000e+00 0.000000e+00
1.910000e+00 0.000000e+00 0.000000e+00
1.920000e+00 0.000000e+00 0.000000e+00
1.930000e+00 0.000000e+00 0.000000e+00
1.940000e+00 0.000000e+00 0.000000e+00
1.950000e+00 0.000000e+00 0.000000e+00
1.960000e+00 0.000000e+00 0.000000e+00
1.970000e+00 0.000000e+00 0.000000e+00
1.980000e+00 0.000000e+00 0.000000e+00
1.990000e+00 0.000000e+00 0.000000e+00

CELLS 200 600
2 0 3 
2 3 4 
2 4 5 
2 5 6 
2 6 7 
2 7 8 
2 8 9 
2 9 10 
2 10 11 
2 11 12 
2 12 13 
2 13 14 
2 14 15 
2 15 16 
2 16 17 
2 17 18 
2 18 19 
2 19 20 
2 20 21 
2 21 22 
2 22 23 
2 23 24 
2 24 25 
2 25 26 
2 26 27 
2 27 28 
2 28 29 
2 29 30 
2 30 31 
2 31 32 
2 32 33 
2 33 34 
2 34 35 
2 35 36 
2 36 37 
2 37 38 
2 38 39 
2 39 40 
2 40 41 
2 41 42 
2 42 43 
2 43 44 
2 44 45 
2 45 46 
2 46 47 
2 47 48 
2 48 49 
2 49 50 
2 50 51 
2 51 52 
2 52 53 
2 53 54 
2 54 55 
2 55 56 
2 56 57 
2 57 58 
2 58 59 
2 59 60 
2 60 61 
2 61 62 
2 62 63 
2 63 64 
2 64 65 
2 65 66 
2 66 67 
2 67 68 
2 68 69 
2 69 70 
2 70 71 
2 71 72 
2 72 73 
2 73 74 
2 74 75 
2 75 76 
2 76 77 
2 77 78 
2 78 79 
2 79 80 
2 80 81 
2 81 82 
2 82 83 
2 83 84 
2 84 85 
2 85 86 
2 86 87 
2 87 88 
2 88 89 
2 89 90 
2 90 91 
2 91 92 
2 92 93 
2 93 94 
2 94 95 
2 95 96 
2 96 97 
2 97 98 
2 98 99 
2 99 100 
2 100 101 
2 101 1 
2 1 102 
2 102 103 
2 103 104 
2 104 105 
2 105 106 
2 106 107 
2 107 108 
2 108 109 
2 109 110 
2 110 111 
2 111 112 
2 112 113 
2 113 114 
2 114 115 
2 115 116 
2 116 117 
2 117 118 
2 118 119 
2 119 120 
2 120 121 
2 121 122 
2 122 123 
2 123 124 
2 124 125 
2 125 126 
2 126 127 
2 127 128 
2 128 129 
2 129 130 
2 130 131 
2 131 132 
2 132 133 
2 133 134 
2 134 135 
2 135 136 
2 136 137 
2 137 138 
2 138 139 
2 139 140 
2 140 141 
2 141 142 
2 142 143 
2 143 144 
2 144 145 
2 145 146 
2 146 147 
2 147 148 
2 148 149 
2 149 150 
2 150 151 
2 151 152 
2 152 153 
2 153 154 
2 154 155 
2 155 156 
2 156 157 
2 157 158 
2 158 159 
2 159 160 
2 160 161 
2 161 162 
2 162 163 
2 163 164 
2 164 165 
2 165 166 
2 166 167 
2 167 168 
2 168 169 
2 169 170 
2 170 171 
2 171 172 
2 172 173 
2 173 174 
2 174 175 
2 175 176 
2 176 177 
2 177 178 
2 178 179 
2 179 180 
2 180 181 
2 181 182 
2 182 183 
2 183 184 
2 184 185 
2 185 186 
2 186 187 
2 187 188 
2 188 189 
2 189 190 
2 190 191 
2 191 192 
2 192 193 
2 193 194 
2 194 195 
2 195 196 
2 196 197 
2 197 198 
2 198 199 
2 199 200 
2 200 2 

CELL_TYPES 200
3
3
3
3
3
3
3
3
3
3
3
3
3
3
3
3
3
3
3
3
3
3
3
3
3
3
3
3
3
3
3
3
3
3
3
3
3
3
3
3
3
3
3
3
3
3
3
3
3
3
3
3
3
3
3
3
3
3
3
3
3
3
3
3
3
3
3
3
3
3
3
3
3
3
3
3
3
3
3
3
3
3
3
3
3
3
3
3
3
3
3
3
3
3
3
3
3
3
3
3
3
3
3
3
3
3
3
3
3
3
3
3
3
3
3
3
3
3
3
3
3
3
3
3
3
3
3
3
3
3
3
3
3
3
3
3
3
3
3
3
3
3
3
3
3
3
3
3
3
3
3
3
3
3
3
3
3
3
3
3
3
3
3
3
3
3
3
3
3
3
3
3
3
3
3
3
3
3
3
3
3
3
3
3
3
3
3
3
3
3
3
3
3
3
3
3
3
3
3
3

POINT_DATA 201

SCALARS node_groups int 1
LOOKUP_TABLE default
1
2
3
1
1
1
1
1
1
1
1
1
1
1
1
1
1
1
1
1
1
1
1
1
1
1
1
1
1
1
1
1
1
1
1
1
1
1
1
1
1
1
1
1
1
1
1
1
1
1
1
1
1
1
1
1
1
1
1
1
1
1
1
1
1
1
1
1
1
1
1
1
1
1
1
1
1
1
1
1
1
1
1
1
1
1
1
1
1
1
1
1
1
1
1
1
1
1
1
1
1
1
2
2
2
2
2
2
2
2
2
2
2
2
2
2
2
2
2
2
2
2
2
2
2
2
2
2
2
2
2
2
2
2
2
2
2
2
2
2
2
2
2
2
2
2
2
2
2
2
2
2
2
2
2
2
2
2
2
2
2
2
2
2
2
2
2
2
2
2
2
2
2
2
2
2
2
2
2
2
2
2
2
2
2
2
2
2
2
2
2
2
2
2
2
2
2
2
2
2
2

SCALARS phil float 1
LOOKUP_TABLE default
0.000000e+00
-1.907908e-02
-3.006998e-02
-1.907908e-04
-3.815816e-04
-5.723725e-04
-7.631633e-04
-9.539541e-04
-1.144745e-03
-1.335536e-03
-1.526327e-03
-1.717117e-03
-1.907908e-03
-2.098699e-03
-2.289490e-03
-2.480281e-03
-2.671071e-03
-2.861862e-03
-3.052653e-03
-3.243444e-03
-3.434235e-03
-3.625026e-03
-3.815816e-03
-4.006607e-03
-4.197398e-03
-4.388189e-03
-4.578980e-03
-4.769770e-03
-4.960561e-03
-5.151352e-03
-5.342143e-03
-5.532934e-03
-5.723725e-03
-5.914515e-03
-6.105306e-03
-6.296097e-03
-6.486888e-03
-6.677679e-03
-6.868469e-03
-7.059260e-03
-7.250051e-03
-7.440842e-03
-7.631633e-03
-7.822424e-03
-8.013214e-03
-8.204005e-03
-8.394796e-03
-8.585587e-03
-8.776378e-03
-8.967168e-03
-9.157959e-03
-9.348750e-03
-9.539541e-03
-9.730332e-03
-9.921123e-03
-1.011191e-02
-1.030270e-02
-1.049350e-02
-1.068429e-02
-1.087508e-02
-1.106587e-02
-1.125666e-02
-1.144745e-02
-1.163824e-02
-1.182903e-02
-1.201982e-02
-1.221061e-02
-1.240140e-02
-1.259219e-02
-1.278298e-02
-1.297378e-02
-1.316457e-02
-1.335536e-02
-1.354615e-02
-1.373694e-02
-1.392773e-02
-1.411852e-02
-1.430931e-02
-1.450010e-02
-1.469089e-02
-1.488168e-02
-1.507247e-02
-1.526327e-02
-1.545406e-02
-1.564485e-02
-1.583564e-02
-1.602643e-02
-1.621722e-02
-1.640801e-02
-1.659880e-02
-1.678959e-02
-1.698038e-02
-1.717117e-02
-1.736196e-02
-1.755276e-02
-1.774355e-02
-1.793434e-02
-1.812513e-02
-1.831592e-02
-1.850671e-02
-1.869750e-02
-1.888829e-02
-1.926985e-02
-1.946052e-02
-1.965098e-02
-1.984112e-02
-2.003085e-02
-2.022007e-02
-2.040868e-02
-2.059660e-02
-2.078374e-02
-2.097002e-02
-2.115535e-02
-2.133967e-02
-2.152290e-02
-2.170499e-02
-2.188586e-02
-2.206546e-02
-2.224373e-02
-2.242060e-02
-2.259603e-02
-2.276996e-02
-2.294235e-02
-2.311316e-02
-2.328231e-02
-2.344976e-02
-2.361548e-02
-2.377943e-02
-2.394155e-02
-2.410171e-02
-2.425982e-02
-2.441577e-02
-2.456948e-02
-2.472084e-02
-2.486976e-02
-2.501617e-02
-2.515996e-02
-2.530108e-02
-2.543944e-02
-2.557498e-02
-2.570762e-02
-2.583732e-02
-2.596399e-02
-2.608760e-02
-2.620807e-02
-2.632536e-02
-2.643941e-02
-2.655018e-02
-2.665762e-02
-2.676167e-02
-2.686228e-02
-2.695942e-02
-2.705479e-02
-2.715006e-02
-2.724512e-02
-2.733987e-02
-2.743420e-02
-2.752803e-02
-2.762125e-02
-2.771377e-02
-2.780551e-02
-2.789639e-02
-2.798633e-02
-2.807525e-02
-2.816309e-02
-2.824978e-02
-2.833526e-02
-2.841946e-02
-2.850233e-02
-2.858381e-02
-2.866384e-02
-2.874238e-02
-2.881938e-02
-2.889478e-02
-2.896854e-02
-2.904059e-02
-2.911092e-02
-2.917948e-02
-2.924620e-02
-2.931096e-02
-2.937368e-02
-2.943424e-02
-2.949255e-02
-2.954851e-02
-2.960204e-02
-2.965305e-02
-2.970145e-02
-2.974717e-02
-2.979014e-02
-2.983028e-02
-2.986753e-02
-2.990183e-02
-2.993311e-02
-2.996132e-02
-2.998640e-02
-3.000830e-02
-3.002695e-02
-3.004233e-02
-3.005437e-02
-3.006303e-02
-3.006824e-02

SCALARS phis float 1
LOOKUP_TABLE default
7.000000e-01
7.337067e-01
7.000000e-01
7.000000e-01
7.000000e-01
7.000000e-01
7.000000e-01
7.000000e-01
7.000000e-01
7.000000e-01
7.000000e-01
7.000000e-01
7.000000e-01
7.000000e-01
7.000000e-01
7.000000e-01
7.000000e-01
7.000000e-01
7.000000e-01
7.000000e-01
7.000000e-01
7.000000e-01
7.000000e-01
7.000000e-01
7.000000e-01
7.000000e-01
7.000000e-01
7.000000e-01
7.000000e-01
7.000000e-01
7.000000e-01
7.000000e-01
7.000000e-01
7.000000e-01
7.000000e-01
7.000000e-01
7.000000e-01
7.000000e-01
7.000000e-01
7.000000e-01
7.000000e-01
7.000000e-01
7.000000e-01
7.000000e-01
7.000000e-01
7.000000e-01
7.000000e-01
7.000000e-01
7.000000e-01
7.000000e-01
7.000000e-01
7.000000e-01
7.000000e-01
7.000000e-01
7.000000e-01
7.000000e-01
7.000000e-01
7.000000e-01
7.000000e-01
7.000000e-01
7.000000e-01
7.000000e-01
7.000000e-01
7.000000e-01
7.000000e-01
7.000000e-01
7.000000e-01
7.000000e-01
7.000000e-01
7.000000e-01
7.000000e-01
7.000000e-01
7.000000e-01
7.000000e-01
7.000000e-01
7.000000e-01
7.000000e-01
7.000000e-01
7.000000e-01
7.000000e-01
7.000000e-01
7.000000e-01
7.000000e-01
7.000000e-01
7.000000e-01
7.000000e-01
7.000000e-01
7.000000e-01
7.000000e-01
7.000000e-01
7.000000e-01
7.000000e-01
7.000000e-01
7.000000e-01
7.000000e-01
7.000000e-01
7.000000e-01
7.000000e-01
7.000000e-01
7.000000e-01
7.000000e-01
7.000000e-01
7.337056e-01
7.336949e-01
7.336735e-01
7.336414e-01
7.335989e-01
7.335459e-01
7.334826e-01
7.334091e-01
7.333257e-01
7.332324e-01
7.331294e-01
7.330169e-01
7.328952e-01
7.327643e-01
7.326246e-01
7.324762e-01
7.323194e-01
7.321546e-01
7.319819e-01
7.318018e-01
7.316146e-01
7.314207e-01
7.312203e-01
7.310139e-01
7.308018e-01
7.305843e-01
7.303615e-01
7.301334e-01
7.299000e-01
7.296615e-01
7.294179e-01
7.291693e-01
7.289160e-01
7.286580e-01
7.283955e-01
7.281287e-01
7.278578e-01
7.275830e-01
7.273044e-01
7.270224e-01
7.267370e-01
7.264487e-01
7.261576e-01
7.258641e-01
7.255685e-01
7.252712e-01
7.249724e-01
7.246727e-01
7.243722e-01
7.240715e-01
7.237696e-01
7.234581e-01
7.231360e-01
7.228032e-01
7.224599e-01
7.221061e-01
7.217421e-01
7.213679e-01
7.209837e-01
7.205896e-01
7.201859e-01
7.197726e-01
7.193501e-01
7.189185e-01
7.184780e-01
7.180289e-01
7.175714e-01
7.171057e-01
7.166324e-01
7.161515e-01
7.156636e-01
7.151688e-01
7.146677e-01
7.141605e-01
7.136477e-01
7.131295e-01
7.126059e-01
7.120770e-01
7.115429e-01
7.110036e-01
7.104592e-01
7.099099e-01
7.093558e-01
7.087971e-01
7.082338e-01
7.076663e-01
7.070947e-01
7.065191e-01
7.059398e-01
7.053569e-01
7.047708e-01
7.041817e-01
7.035899e-01
7.029956e-01
7.023993e-01
7.018012e-01
7.012017e-01
7.006012e-01
7.000000e-01

SCALARS il float 1
LOOKUP_TABLE default
-1.907908e-02
-1.907902e-02
-1.005207e-04
-1.907908e-02
-1.907908e-02
-1.907908e-02
-1.907908e-02
-1.907908e-02
-1.907908e-02
-1.907908e-02
-1.907908e-02
-1.907908e-02
-1.907908e-02
-1.907908e-02
-1.907908e-02
-1.907908e-02
-1.907908e-02
-1.907908e-02
-1.907908e-02
-1.907908e-02
-1.907908e-02
-1.907908e-02
-1.907908e-02
-1.907908e-02
-1.907908e-02
-1.907908e-02
-1.907908e-02
-1.907908e-02
-1.907908e-02
-1.907908e-02
-1.907908e-02
-1.907908e-02
-1.907908e-02
-1.907908e-02
-1.907908e-02
-1.907908e-02
-1.907908e-02
-1.907908e-02
-1.907908e-02
-1.907908e-02
-1.907908e-02
-1.907908e-02
-1.907908e-02
-1.907908e-02
-1.907908e-02
-1.907908e-02
-1.907908e-02
-1.907908e-02
-1.907908e-02
-1.907908e-02
-1.907908e-02
-1.907908e-02
-1.907908e-02
-1.907908e-02
-1.907908e-02
-1.907908e-02
-1.907908e-02
-1.907908e-02
-1.907908e-02
-1.907908e-02
-1.907908e-02
-1.907908e-02
-1.907908e-02
-1.907908e-02
-1.907908e-02
-1.907908e-02
-1.907908e-02
-1.907908e-02
-1.907908e-02
-1.907908e-02
-1.907908e-02
-1.907908e-02
-1.907908e-02
-1.907908e-02
-1.907908e-02
-1.907908e-02
-1.907908e-02
-1.907908e-02
-1.907908e-02
-1.907908e-02
-1.907908e-02
-1.907908e-02
-1.907908e-02
-1.907908e-02
-1.907908e-02
-1.907908e-02
-1.907908e-02
-1.907908e-02
-1.907908e-02
-1.907908e-02
-1.907908e-02
-1.907908e-02
-1.907908e-02
-1.907908e-02
-1.907908e-02
-1.907908e-02
-1.907908e-02
-1.907908e-02
-1.907908e-02
-1.907908e-02
-1.907908e-02
-1.907910e-02
-1.907366e-02
-1.905786e-02
-1.903166e-02
-1.899530e-02
-1.894906e-02
-1.889327e-02
-1.882826e-02
-1.875439e-02
-1.867207e-02
-1.858171e-02
-1.848376e-02
-1.837871e-02
-1.826701e-02
-1.814893e-02
-1.802458e-02
-1.789415e-02
-1.775787e-02
-1.761604e-02
-1.746900e-02
-1.731706e-02
-1.716046e-02
-1.699870e-02
-1.683083e-02
-1.665861e-02
-1.648479e-02
-1.630535e-02
-1.611551e-02
-1.591526e-02
-1.570486e-02
-1.548457e-02
-1.525473e-02
-1.501568e-02
-1.476777e-02
-1.451140e-02
-1.424699e-02
-1.397500e-02
-1.369591e-02
-1.341016e-02
-1.311803e-02
-1.281964e-02
-1.251516e-02
-1.220484e-02
-1.188897e-02
-1.156792e-02
-1.124185e-02
-1.091154e-02
-1.057452e-02
-1.023718e-02
-9.873855e-03
-9.589696e-03
-9.520602e-03
-9.521881e-03
-9.491103e-03
-9.455972e-03
-9.409405e-03
-9.353699e-03
-9.288667e-03
-9.214811e-03
-9.132486e-03
-9.042126e-03
-8.944180e-03
-8.839128e-03
-8.727429e-03
-8.609347e-03
-8.485001e-03
-8.354566e-03
-8.218286e-03
-8.076466e-03
-7.929441e-03
-7.777507e-03
-7.620913e-03
-7.459165e-03
-7.291297e-03
-7.119082e-03
-6.945263e-03
-6.765830e-03
-6.575994e-03
-6.375746e-03
-6.165346e-03
-5.945063e-03
-5.715224e-03
-5.476171e-03
-5.228265e-03
-4.971897e-03
-4.707492e-03
-4.435502e-03
-4.156406e-03
-3.870662e-03
-3.578536e-03
-3.280145e-03
-2.975664e-03
-2.665343e-03
-2.349466e-03
-2.028443e-03
-1.702288e-03
-1.372306e-03
-1.034061e-03
-7.013020e-04
-3.208770e-04

SCALARS is float 1
LOOKUP_TABLE default
-1.611227e-01
-8.294741e-04
-1.611227e-01
-1.611227e-01
-1.611227e-01
-1.611227e-01
-1.611227e-01
-1.611227e-01
-1.611227e-01
-1.611227e-01
-1.611227e-01
-1.611227e-01
-1.611227e-01
-1.611227e-01
-1.611227e-01
-1.611227e-01
-1.611227e-01
-1.611227e-01
-1.611227e-01
-1.611227e-01
-1.611227e-01
-1.611227e-01
-1.611227e-01
-1.611227e-01
-1.611227e-01
-1.611227e-01
-1.611227e-01
-1.611227e-01
-1.611227e-01
-1.611227e-01
-1.611227e-01
-1.611227e-01
-1.611227e-01
-1.611227e-01
-1.611227e-01
-1.611227e-01
-1.611227e-01
-1.611227e-01
-1.611227e-01
-1.611227e-01
-1.611227e-01
-1.611227e-01
-1.611227e-01
-1.611227e-01
-1.611227e-01
-1.611227e-01
-1.611227e-01
-1.611227e-01
-1.611227e-01
-1.611227e-01
-1.611227e-01
-1.611227e-01
-1.611227e-01
-1.611227e-01
-1.611227e-01
-1.611227e-01
-1.611227e-01
-1.611227e-01
-1.611227e-01
-1.611227e-01
-1.611227e-01
-1.611227e-01
-1.611227e-01
-1.611227e-01
-1.611227e-01
-1.611227e-01
-1.611227e-01
-1.611227e-01
-1.611227e-01
-1.611227e-01
-1.611227e-01
-1.611227e-01
-1.611227e-01
-1.611227e-01
-1.611227e-01
-1.611227e-01
-1.611227e-01
-1.611227e-01
-1.611227e-01
-1.611227e-01
-1.611227e-01
-1.611227e-01
-1.611227e-01
-1.611227e-01
-1.611227e-01
-1.611227e-01
-1.611227e-01
-1.611227e-01
-1.611227e-01
-1.611227e-01
-1.611227e-01
-1.611227e-01
-1.611227e-01
-1.611227e-01
-1.611227e-01
-1.611227e-01
-1.611227e-01
-1.611227e-01
-1.611227e-01
-1.611227e-01
-1.611227e-01
-1.611227e-01
5.059403e-03
1.615095e-02
2.670400e-02
3.731376e-02
4.779167e-02
5.816252e-02
6.839798e-02
7.848729e-02
8.841677e-02
9.817525e-02
1.077532e-01
1.171438e-01
1.263433e-01
1.353392e-01
1.441070e-01
1.526208e-01
1.608572e-01
1.687950e-01
1.764160e-01
1.837053e-01
1.906497e-01
1.972364e-01
2.034573e-01
2.092952e-01
2.147845e-01
2.201372e-01
2.254795e-01
2.307686e-01
2.359843e-01
2.411031e-01
2.461054e-01
2.509749e-01
2.556975e-01
2.602605e-01
2.646525e-01
2.688639e-01
2.728880e-01
2.767209e-01
2.803503e-01
2.837516e-01
2.868989e-01
2.897687e-01
2.923400e-01
2.945943e-01
2.965178e-01
2.980930e-01
2.993233e-01
3.001399e-01
3.007523e-01
3.003488e-01
3.057017e-01
3.169368e-01
3.274514e-01
3.380715e-01
3.485466e-01
3.589182e-01
3.691535e-01
3.792428e-01
3.891723e-01
3.989308e-01
4.085087e-01
4.178993e-01
4.270988e-01
4.360948e-01
4.448625e-01
4.533763e-01
4.616127e-01
4.695505e-01
4.771715e-01
4.844608e-01
4.914052e-01
4.979919e-01
5.042128e-01
5.100507e-01
5.155400e-01
5.208927e-01
5.262350e-01
5.315241e-01
5.367398e-01
5.418586e-01
5.468609e-01
5.517304e-01
5.564530e-01
5.610160e-01
5.654080e-01
5.696194e-01
5.736434e-01
5.774766e-01
5.811053e-01
5.845091e-01
5.876470e-01
5.905520e-01
5.929922e-01
5.957356e-01
5.958338e-01
6.042209e-01
5.800287e-01
6.757235e-01
3.222454e-01

CELL_DATA 200
SCALARS mat_id int 1
LOOKUP_TABLE default
1
1
1
1
1
1
1
1
1
1
1
1
1
1
1
1
1
1
1
1
1
1
1
1
1
1
1
1
1
1
1
1
1
1
1
1
1
1
1
1
1
1
1
1
1
1
1
1
1
1
1
1
1
1
1
1
1
1
1
1
1
1
1
1
1
1
1
1
1
1
1
1
1
1
1
1
1
1
1
1
1
1
1
1
1
1
1
1
1
1
1
1
1
1
1
1
1
1
1
1
2
2
2
2
2
2
2
2
2
2
2
2
2
2
2
2
2
2
2
2
2
2
2
2
2
2
2
2
2
2
2
2
2
2
2
2
2
2
2
2
2
2
2
2
2
2
2
2
2
2
2
2
2
2
2
2
2
2
2
2
2
2
2
2
2
2
2
2
2
2
2
2
2
2
2
2
2
2
2
2
2
2
2
2
2
2
2
2
2
2
2
2
2
2
2
2
2
2
2
2
