# vtk DataFile Version 2.0
step 19 time 7.916667e-02 normalized time 7.916667e-01, generated by simple.py
ASCII
DATASET UNSTRUCTURED_GRID

POINTS 201 float
0.000000e+00 0.000000e+00 0.000000e+00
1.000000e+00 0.000000e+00 0.000000e+00
2.000000e+00 0.000000e+00 0.000000e+00
1.000000e-02 0.000000e+00 0.000000e+00
2.000000e-02 0.000000e+00 0.000000e+00
3.000000e-02 0.000000e+00 0.000000e+00
4.000000e-02 0.000000e+00 0.000000e+00
5.000000e-02 0.000000e+00 0.000000e+00
6.000000e-02 0.000000e+00 0.000000e+00
7.000000e-02 0.000000e+00 0.000000e+00
8.000000e-02 0.000000e+00 0.000000e+00
9.000000e-02 0.000000e+00 0.000000e+00
1.000000e-01 0.000000e+00 0.000000e+00
1.100000e-01 0.000000e+00 0.000000e+00
1.200000e-01 0.000000e+00 0.000000e+00
1.300000e-01 0.000000e+00 0.000000e+00
1.400000e-01 0.000000e+00 0.000000e+00
1.500000e-01 0.000000e+00 0.000000e+00
1.600000e-01 0.000000e+00 0.000000e+00
1.700000e-01 0.000000e+00 0.000000e+00
1.800000e-01 0.000000e+00 0.000000e+00
1.900000e-01 0.000000e+00 0.000000e+00
2.000000e-01 0.000000e+00 0.000000e+00
2.100000e-01 0.000000e+00 0.000000e+00
2.200000e-01 0.000000e+00 0.000000e+00
2.300000e-01 0.000000e+00 0.000000e+00
2.400000e-01 0.000000e+00 0.000000e+00
2.500000e-01 0.000000e+00 0.000000e+00
2.600000e-01 0.000000e+00 0.000000e+00
2.700000e-01 0.000000e+00 0.000000e+00
2.800000e-01 0.000000e+00 0.000000e+00
2.900000e-01 0.000000e+00 0.000000e+00
3.000000e-01 0.000000e+00 0.000000e+00
3.100000e-01 0.000000e+00 0.000000e+00
3.200000e-01 0.000000e+00 0.000000e+00
3.300000e-01 0.000000e+00 0.000000e+00
3.400000e-01 0.000000e+00 0.000000e+00
3.500000e-01 0.000000e+00 0.000000e+00
3.600000e-01 0.000000e+00 0.000000e+00
3.700000e-01 0.000000e+00 0.000000e+00
3.800000e-01 0.000000e+00 0.000000e+00
3.900000e-01 0.000000e+00 0.000000e+00
4.000000e-01 0.000000e+00 0.000000e+00
4.100000e-01 0.000000e+00 0.000000e+00
4.200000e-01 0.000000e+00 0.000000e+00
4.300000e-01 0.000000e+00 0.000000e+00
4.400000e-01 0.000000e+00 0.000000e+00
4.500000e-01 0.000000e+00 0.000000e+00
4.600000e-01 0.000000e+00 0.000000e+00
4.700000e-01 0.000000e+00 0.000000e+00
4.800000e-01 0.000000e+00 0.000000e+00
4.900000e-01 0.000000e+00 0.000000e+00
5.000000e-01 0.000000e+00 0.000000e+00
5.100000e-01 0.000000e+00 0.000000e+00
5.200000e-01 0.000000e+00 0.000000e+00
5.300000e-01 0.000000e+00 0.000000e+00
5.400000e-01 0.000000e+00 0.000000e+00
5.500000e-01 0.000000e+00 0.000000e+00
5.600000e-01 0.000000e+00 0.000000e+00
5.700000e-01 0.000000e+00 0.000000e+00
5.800000e-01 0.000000e+00 0.000000e+00
5.900000e-01 0.000000e+00 0.000000e+00
6.000000e-01 0.000000e+00 0.000000e+00
6.100000e-01 0.000000e+00 0.000000e+00
6.200000e-01 0.000000e+00 0.000000e+00
6.300000e-01 0.000000e+00 0.000000e+00
6.400000e-01 0.000000e+00 0.000000e+00
6.500000e-01 0.000000e+00 0.000000e+00
6.600000e-01 0.000000e+00 0.000000e+00
6.700000e-01 0.000000e+00 0.000000e+00
6.800000e-01 0.000000e+00 0.000000e+00
6.900000e-01 0.000000e+00 0.000000e+00
7.000000e-01 0.000000e+00 0.000000e+00
7.100000e-01 0.000000e+00 0.000000e+00
7.200000e-01 0.000000e+00 0.000000e+00
7.300000e-01 0.000000e+00 0.000000e+00
7.400000e-01 0.000000e+00 0.000000e+00
7.500000e-01 0.000000e+00 0.000000e+00
7.600000e-01 0.000000e+00 0.000000e+00
7.700000e-01 0.000000e+00 0.000000e+00
7.800000e-01 0.000000e+00 0.000000e+00
7.900000e-01 0.000000e+00 0.000000e+00
8.000000e-01 0.000000e+00 0.000000e+00
8.100000e-01 0.000000e+00 0.000000e+00
8.200000e-01 0.000000e+00 0.000000e+00
8.300000e-01 0.000000e+00 0.000000e+00
8.400000e-01 0.000000e+00 0.000000e+00
8.500000e-01 0.000000e+00 0.000000e+00
8.600000e-01 0.000000e+00 0.000000e+00
8.700000e-01 0.000000e+00 0.000000e+00
8.800000e-01 0.000000e+00 0.000000e+00
8.900000e-01 0.000000e+00 0.000000e+00
9.000000e-01 0.000000e+00 0.000000e+00
9.100000e-01 0.000000e+00 0.000000e+00
9.200000e-01 0.000000e+00 0.000000e+00
9.300000e-01 0.000000e+00 0.000000e+00
9.400000e-01 0.000000e+00 0.000000e+00
9.500000e-01 0.000000e+00 0.000000e+00
9.600000e-01 0.000000e+00 0.000000e+00
9.700000e-01 0.000000e+00 0.000000e+00
9.800000e-01 0.000000e+00 0.000000e+00
9.900000e-01 0.000000e+00 0.000000e+00
1.010000e+00 0.000000e+00 0.000000e+00
1.020000e+00 0.000000e+00 0.000000e+00
1.030000e+00 0.000000e+00 0.000000e+00
1.040000e+00 0.000000e+00 0.000000e+00
1.050000e+00 0.000000e+00 0.000000e+00
1.060000e+00 0.000000e+00 0.000000e+00
1.070000e+00 0.000000e+00 0.000000e+00
1.080000e+00 0.000000e+00 0.000000e+00
1.090000e+00 0.000000e+00 0.000000e+00
1.100000e+00 0.000000e+00 0.000000e+00
1.110000e+00 0.000000e+00 0.000000e+00
1.120000e+00 0.000000e+00 0.000000e+00
1.130000e+00 0.000000e+00 0.000000e+00
1.140000e+00 0.000000e+00 0.000000e+00
1.150000e+00 0.000000e+00 0.000000e+00
1.160000e+00 0.000000e+00 0.000000e+00
1.170000e+00 0.000000e+00 0.000000e+00
1.180000e+00 0.000000e+00 0.000000e+00
1.190000e+00 0.000000e+00 0.000000e+00
1.200000e+00 0.000000e+00 0.000000e+00
1.210000e+00 0.000000e+00 0.000000e+00
1.220000e+00 0.000000e+00 0.000000e+00
1.230000e+00 0.000000e+00 0.000000e+00
1.240000e+00 0.000000e+00 0.000000e+00
1.250000e+00 0.000000e+00 0.000000e+00
1.260000e+00 0.000000e+00 0.000000e+00
1.270000e+00 0.000000e+00 0.000000e+00
1.280000e+00 0.000000e+00 0.000000e+00
1.290000e+00 0.000000e+00 0.000000e+00
1.300000e+00 0.000000e+00 0.000000e+00
1.310000e+00 0.000000e+00 0.000000e+00
1.320000e+00 0.000000e+00 0.000000e+00
1.330000e+00 0.000000e+00 0.000000e+00
1.340000e+00 0.000000e+00 0.000000e+00
1.350000e+00 0.000000e+00 0.000000e+00
1.360000e+00 0.000000e+00 0.000000e+00
1.370000e+00 0.000000e+00 0.000000e+00
1.380000e+00 0.000000e+00 0.000000e+00
1.390000e+00 0.000000e+00 0.000000e+00
1.400000e+00 0.000000e+00 0.000000e+00
1.410000e+00 0.000000e+00 0.000000e+00
1.420000e+00 0.000000e+00 0.000000e+00
1.430000e+00 0.000000e+00 0.000000e+00
1.440000e+00 0.000000e+00 0.000000e+00
1.450000e+00 0.000000e+00 0.000000e+00
1.460000e+00 0.000000e+00 0.000000e+00
1.470000e+00 0.000000e+00 0.000000e+00
1.480000e+00 0.000000e+00 0.000000e+00
1.490000e+00 0.000000e+00 0.000000e+00
1.500000e+00 0.000000e+00 0.000000e+00
1.510000e+00 0.000000e+00 0.000000e+00
1.520000e+00 0.000000e+00 0.000000e+00
1.530000e+00 0.000000e+00 0.000000e+00
1.540000e+00 0.000000e+00 0.000000e+00
1.550000e+00 0.000000e+00 0.000000e+00
1.560000e+00 0.000000e+00 0.000000e+00
1.570000e+00 0.000000e+00 0.000000e+00
1.580000e+00 0.000000e+00 0.000000e+00
1.590000e+00 0.000000e+00 0.000000e+00
1.600000e+00 0.000000e+00 0.000000e+00
1.610000e+00 0.000000e+00 0.000000e+00
1.620000e+00 0.000000e+00 0.000000e+00
1.630000e+00 0.000000e+00 0.000000e+00
1.640000e+00 0.000000e+00 0.000000e+00
1.650000e+00 0.000000e+00 0.000000e+00
1.660000e+00 0.000000e+00 0.000000e+00
1.670000e+00 0.000000e+00 0.000000e+00
1.680000e+00 0.000000e+00 0.000000e+00
1.690000e+00 0.000000e+00 0.000000e+00
1.700000e+00 0.000000e+00 0.000000e+00
1.710000e+00 0.000000e+00 0.000000e+00
1.720000e+00 0.000000e+00 0.000000e+00
1.730000e+00 0.000000e+00 0.000000e+00
1.740000e+00 0.000000e+00 0.000000e+00
1.750000e+00 0.000000e+00 0.000000e+00
1.760000e+00 0.000000e+00 0.000000e+00
1.770000e+00 0.000000e+00 0.000000e+00
1.780000e+00 0.000000e+00 0.000000e+00
1.790000e+00 0.000000e+00 0.000000e+00
1.800000e+00 0.000000e+00 0.000000e+00
1.810000e+00 0.000000e+00 0.000000e+00
1.820000e+00 0.000000e+00 0.000000e+00
1.830000e+00 0.000000e+00 0.000000e+00
1.840000e+00 0.000000e+00 0.000000e+00
1.850000e+00 0.000000e+00 0.000000e+00
1.860000e+00 0.000000e+00 0.000000e+00
1.870000e+00 0.000000e+00 0.000000e+00
1.880000e+00 0.000000e+00 0.000000e+00
1.890000e+00 0.000000e+00 0.000000e+00
1.900000e+00 0.000000e+00 0.000000e+00
1.910000e+00 0.000000e+00 0.000000e+00
1.920000e+00 0.000000e+00 0.000000e+00
1.930000e+00 0.000000e+00 0.000000e+00
1.940000e+00 0.000000e+00 0.000000e+00
1.950000e+00 0.000000e+00 0.000000e+00
1.960000e+00 0.000000e+00 0.000000e+00
1.970000e+00 0.000000e+00 0.000000e+00
1.980000e+00 0.000000e+00 0.000000e+00
1.990000e+00 0.000000e+00 0.000000e+00

CELLS 200 600
2 0 3 
2 3 4 
2 4 5 
2 5 6 
2 6 7 
2 7 8 
2 8 9 
2 9 10 
2 10 11 
2 11 12 
2 12 13 
2 13 14 
2 14 15 
2 15 16 
2 16 17 
2 17 18 
2 18 19 
2 19 20 
2 20 21 
2 21 22 
2 22 23 
2 23 24 
2 24 25 
2 25 26 
2 26 27 
2 27 28 
2 28 29 
2 29 30 
2 30 31 
2 31 32 
2 32 33 
2 33 34 
2 34 35 
2 35 36 
2 36 37 
2 37 38 
2 38 39 
2 39 40 
2 40 41 
2 41 42 
2 42 43 
2 43 44 
2 44 45 
2 45 46 
2 46 47 
2 47 48 
2 48 49 
2 49 50 
2 50 51 
2 51 52 
2 52 53 
2 53 54 
2 54 55 
2 55 56 
2 56 57 
2 57 58 
2 58 59 
2 59 60 
2 60 61 
2 61 62 
2 62 63 
2 63 64 
2 64 65 
2 65 66 
2 66 67 
2 67 68 
2 68 69 
2 69 70 
2 70 71 
2 71 72 
2 72 73 
2 73 74 
2 74 75 
2 75 76 
2 76 77 
2 77 78 
2 78 79 
2 79 80 
2 80 81 
2 81 82 
2 82 83 
2 83 84 
2 84 85 
2 85 86 
2 86 87 
2 87 88 
2 88 89 
2 89 90 
2 90 91 
2 91 92 
2 92 93 
2 93 94 
2 94 95 
2 95 96 
2 96 97 
2 97 98 
2 98 99 
2 99 100 
2 100 101 
2 101 1 
2 1 102 
2 102 103 
2 103 104 
2 104 105 
2 105 106 
2 106 107 
2 107 108 
2 108 109 
2 109 110 
2 110 111 
2 111 112 
2 112 113 
2 113 114 
2 114 115 
2 115 116 
2 116 117 
2 117 118 
2 118 119 
2 119 120 
2 120 121 
2 121 122 
2 122 123 
2 123 124 
2 124 125 
2 125 126 
2 126 127 
2 127 128 
2 128 129 
2 129 130 
2 130 131 
2 131 132 
2 132 133 
2 133 134 
2 134 135 
2 135 136 
2 136 137 
2 137 138 
2 138 139 
2 139 140 
2 140 141 
2 141 142 
2 142 143 
2 143 144 
2 144 145 
2 145 146 
2 146 147 
2 147 148 
2 148 149 
2 149 150 
2 150 151 
2 151 152 
2 152 153 
2 153 154 
2 154 155 
2 155 156 
2 156 157 
2 157 158 
2 158 159 
2 159 160 
2 160 161 
2 161 162 
2 162 163 
2 163 164 
2 164 165 
2 165 166 
2 166 167 
2 167 168 
2 168 169 
2 169 170 
2 170 171 
2 171 172 
2 172 173 
2 173 174 
2 174 175 
2 175 176 
2 176 177 
2 177 178 
2 178 179 
2 179 180 
2 180 181 
2 181 182 
2 182 183 
2 183 184 
2 184 185 
2 185 186 
2 186 187 
2 187 188 
2 188 189 
2 189 190 
2 190 191 
2 191 192 
2 192 193 
2 193 194 
2 194 195 
2 195 196 
2 196 197 
2 197 198 
2 198 199 
2 199 200 
2 200 2 

CELL_TYPES 200
3
3
3
3
3
3
3
3
3
3
3
3
3
3
3
3
3
3
3
3
3
3
3
3
3
3
3
3
3
3
3
3
3
3
3
3
3
3
3
3
3
3
3
3
3
3
3
3
3
3
3
3
3
3
3
3
3
3
3
3
3
3
3
3
3
3
3
3
3
3
3
3
3
3
3
3
3
3
3
3
3
3
3
3
3
3
3
3
3
3
3
3
3
3
3
3
3
3
3
3
3
3
3
3
3
3
3
3
3
3
3
3
3
3
3
3
3
3
3
3
3
3
3
3
3
3
3
3
3
3
3
3
3
3
3
3
3
3
3
3
3
3
3
3
3
3
3
3
3
3
3
3
3
3
3
3
3
3
3
3
3
3
3
3
3
3
3
3
3
3
3
3
3
3
3
3
3
3
3
3
3
3
3
3
3
3
3
3
3
3
3
3
3
3
3
3
3
3
3
3

POINT_DATA 201

SCALARS node_groups int 1
LOOKUP_TABLE default
1
2
3
1
1
1
1
1
1
1
1
1
1
1
1
1
1
1
1
1
1
1
1
1
1
1
1
1
1
1
1
1
1
1
1
1
1
1
1
1
1
1
1
1
1
1
1
1
1
1
1
1
1
1
1
1
1
1
1
1
1
1
1
1
1
1
1
1
1
1
1
1
1
1
1
1
1
1
1
1
1
1
1
1
1
1
1
1
1
1
1
1
1
1
1
1
1
1
1
1
1
1
2
2
2
2
2
2
2
2
2
2
2
2
2
2
2
2
2
2
2
2
2
2
2
2
2
2
2
2
2
2
2
2
2
2
2
2
2
2
2
2
2
2
2
2
2
2
2
2
2
2
2
2
2
2
2
2
2
2
2
2
2
2
2
2
2
2
2
2
2
2
2
2
2
2
2
2
2
2
2
2
2
2
2
2
2
2
2
2
2
2
2
2
2
2
2
2
2
2
2

SCALARS phil float 1
LOOKUP_TABLE default
0.000000e+00
6.009804e-01
9.039686e-01
6.009804e-03
1.201961e-02
1.802941e-02
2.403922e-02
3.004902e-02
3.605882e-02
4.206863e-02
4.807843e-02
5.408823e-02
6.009804e-02
6.610784e-02
7.211765e-02
7.812745e-02
8.413725e-02
9.014706e-02
9.615686e-02
1.021667e-01
1.081765e-01
1.141863e-01
1.201961e-01
1.262059e-01
1.322157e-01
1.382255e-01
1.442353e-01
1.502451e-01
1.562549e-01
1.622647e-01
1.682745e-01
1.742843e-01
1.802941e-01
1.863039e-01
1.923137e-01
1.983235e-01
2.043333e-01
2.103431e-01
2.163529e-01
2.223627e-01
2.283725e-01
2.343824e-01
2.403922e-01
2.464020e-01
2.524118e-01
2.584216e-01
2.644314e-01
2.704412e-01
2.764510e-01
2.824608e-01
2.884706e-01
2.944804e-01
3.004902e-01
3.065000e-01
3.125098e-01
3.185196e-01
3.245294e-01
3.305392e-01
3.365490e-01
3.425588e-01
3.485686e-01
3.545784e-01
3.605882e-01
3.665980e-01
3.726078e-01
3.786176e-01
3.846274e-01
3.906373e-01
3.966471e-01
4.026569e-01
4.086667e-01
4.146765e-01
4.206863e-01
4.266961e-01
4.327059e-01
4.387157e-01
4.447255e-01
4.507353e-01
4.567451e-01
4.627549e-01
4.687647e-01
4.747745e-01
4.807843e-01
4.867941e-01
4.928039e-01
4.988137e-01
5.048235e-01
5.108333e-01
5.168431e-01
5.228529e-01
5.288627e-01
5.348725e-01
5.408823e-01
5.468922e-01
5.529020e-01
5.589118e-01
5.649216e-01
5.709314e-01
5.769412e-01
5.829510e-01
5.889608e-01
5.949706e-01
6.069902e-01
6.129998e-01
6.190093e-01
6.250183e-01
6.310270e-01
6.370351e-01
6.430427e-01
6.490496e-01
6.550558e-01
6.610613e-01
6.670659e-01
6.730696e-01
6.790722e-01
6.850736e-01
6.910737e-01
6.970723e-01
7.030694e-01
7.090649e-01
7.150589e-01
7.210513e-01
7.270423e-01
7.330319e-01
7.390202e-01
7.450072e-01
7.509930e-01
7.569772e-01
7.629589e-01
7.689368e-01
7.749096e-01
7.808760e-01
7.868346e-01
7.927841e-01
7.987230e-01
8.046497e-01
8.105625e-01
8.164596e-01
8.223391e-01
8.281987e-01
8.340361e-01
8.398485e-01
8.456328e-01
8.513857e-01
8.571038e-01
8.627831e-01
8.684190e-01
8.740062e-01
8.795385e-01
8.850082e-01
8.904055e-01
8.957175e-01
9.009808e-01
9.062391e-01
9.114845e-01
9.166992e-01
9.205577e-01
9.197039e-01
9.189360e-01
9.182154e-01
9.175303e-01
9.168746e-01
9.162446e-01
9.156377e-01
9.150521e-01
9.144862e-01
9.139392e-01
9.134099e-01
9.128975e-01
9.124008e-01
9.119189e-01
9.114509e-01
9.109960e-01
9.105534e-01
9.101223e-01
9.097021e-01
9.092922e-01
9.088926e-01
9.085042e-01
9.081282e-01
9.077655e-01
9.074171e-01
9.070834e-01
9.067653e-01
9.064631e-01
9.061772e-01
9.059081e-01
9.056560e-01
9.054210e-01
9.052035e-01
9.050036e-01
9.048214e-01
9.046571e-01
9.045106e-01
9.043820e-01
9.042711e-01
9.041778e-01
9.041019e-01
9.040433e-01
9.040017e-01
9.039769e-01

SCALARS phis float 1
LOOKUP_TABLE default
7.000000e-01
8.706981e-01
7.000000e-01
7.000000e-01
7.000000e-01
7.000000e-01
7.000000e-01
7.000000e-01
7.000000e-01
7.000000e-01
7.000000e-01
7.000000e-01
7.000000e-01
7.000000e-01
7.000000e-01
7.000000e-01
7.000000e-01
7.000000e-01
7.000000e-01
7.000000e-01
7.000000e-01
7.000000e-01
7.000000e-01
7.000000e-01
7.000000e-01
7.000000e-01
7.000000e-01
7.000000e-01
7.000000e-01
7.000000e-01
7.000000e-01
7.000000e-01
7.000000e-01
7.000000e-01
7.000000e-01
7.000000e-01
7.000000e-01
7.000000e-01
7.000000e-01
7.000000e-01
7.000000e-01
7.000000e-01
7.000000e-01
7.000000e-01
7.000000e-01
7.000000e-01
7.000000e-01
7.000000e-01
7.000000e-01
7.000000e-01
7.000000e-01
7.000000e-01
7.000000e-01
7.000000e-01
7.000000e-01
7.000000e-01
7.000000e-01
7.000000e-01
7.000000e-01
7.000000e-01
7.000000e-01
7.000000e-01
7.000000e-01
7.000000e-01
7.000000e-01
7.000000e-01
7.000000e-01
7.000000e-01
7.000000e-01
7.000000e-01
7.000000e-01
7.000000e-01
7.000000e-01
7.000000e-01
7.000000e-01
7.000000e-01
7.000000e-01
7.000000e-01
7.000000e-01
7.000000e-01
7.000000e-01
7.000000e-01
7.000000e-01
7.000000e-01
7.000000e-01
7.000000e-01
7.000000e-01
7.000000e-01
7.000000e-01
7.000000e-01
7.000000e-01
7.000000e-01
7.000000e-01
7.000000e-01
7.000000e-01
7.000000e-01
7.000000e-01
7.000000e-01
7.000000e-01
7.000000e-01
7.000000e-01
7.000000e-01
8.706924e-01
8.706384e-01
8.705305e-01
8.703691e-01
8.701545e-01
8.698873e-01
8.695682e-01
8.691978e-01
8.687769e-01
8.683063e-01
8.677868e-01
8.672195e-01
8.666051e-01
8.659448e-01
8.652396e-01
8.644906e-01
8.636993e-01
8.628669e-01
8.619952e-01
8.610856e-01
8.601399e-01
8.591599e-01
8.581473e-01
8.571040e-01
8.560319e-01
8.549323e-01
8.538055e-01
8.526515e-01
8.514708e-01
8.502637e-01
8.490308e-01
8.477727e-01
8.464902e-01
8.451840e-01
8.438549e-01
8.425039e-01
8.411318e-01
8.397397e-01
8.383286e-01
8.368994e-01
8.354536e-01
8.339923e-01
8.325172e-01
8.310296e-01
8.295314e-01
8.280242e-01
8.265099e-01
8.249902e-01
8.234671e-01
8.219425e-01
8.204121e-01
8.188333e-01
8.172007e-01
8.155145e-01
8.137753e-01
8.119834e-01
8.101395e-01
8.082444e-01
8.062988e-01
8.043034e-01
8.022593e-01
8.001672e-01
7.980281e-01
7.958431e-01
7.936131e-01
7.913394e-01
7.890233e-01
7.866663e-01
7.842698e-01
7.818355e-01
7.793651e-01
7.768603e-01
7.743230e-01
7.717550e-01
7.691582e-01
7.665339e-01
7.638823e-01
7.612036e-01
7.584982e-01
7.557663e-01
7.530087e-01
7.502259e-01
7.474187e-01
7.445877e-01
7.417339e-01
7.388582e-01
7.359614e-01
7.330446e-01
7.301087e-01
7.271549e-01
7.241843e-01
7.211983e-01
7.181984e-01
7.151862e-01
7.121632e-01
7.091313e-01
7.060922e-01
7.030478e-01
7.000000e-01

SCALARS il float 1
LOOKUP_TABLE default
6.009804e-01
6.009803e-01
-4.763346e-04
6.009804e-01
6.009804e-01
6.009804e-01
6.009804e-01
6.009804e-01
6.009804e-01
6.009804e-01
6.009804e-01
6.009804e-01
6.009804e-01
6.009804e-01
6.009804e-01
6.009804e-01
6.009804e-01
6.009804e-01
6.009804e-01
6.009804e-01
6.009804e-01
6.009804e-01
6.009804e-01
6.009804e-01
6.009804e-01
6.009804e-01
6.009804e-01
6.009804e-01
6.009804e-01
6.009804e-01
6.009804e-01
6.009804e-01
6.009804e-01
6.009804e-01
6.009804e-01
6.009804e-01
6.009804e-01
6.009804e-01
6.009804e-01
6.009804e-01
6.009804e-01
6.009804e-01
6.009804e-01
6.009804e-01
6.009804e-01
6.009804e-01
6.009804e-01
6.009804e-01
6.009804e-01
6.009804e-01
6.009804e-01
6.009804e-01
6.009804e-01
6.009804e-01
6.009804e-01
6.009804e-01
6.009804e-01
6.009804e-01
6.009804e-01
6.009804e-01
6.009804e-01
6.009804e-01
6.009804e-01
6.009804e-01
6.009804e-01
6.009804e-01
6.009804e-01
6.009804e-01
6.009804e-01
6.009804e-01
6.009804e-01
6.009804e-01
6.009804e-01
6.009804e-01
6.009804e-01
6.009804e-01
6.009804e-01
6.009804e-01
6.009804e-01
6.009804e-01
6.009804e-01
6.009804e-01
6.009804e-01
6.009804e-01
6.009804e-01
6.009804e-01
6.009804e-01
6.009804e-01
6.009804e-01
6.009804e-01
6.009804e-01
6.009804e-01
6.009804e-01
6.009804e-01
6.009804e-01
6.009804e-01
6.009804e-01
6.009804e-01
6.009804e-01
6.009804e-01
6.009804e-01
6.009804e-01
6.009744e-01
6.009565e-01
6.009269e-01
6.008873e-01
6.008398e-01
6.007860e-01
6.007262e-01
6.006595e-01
6.005857e-01
6.005045e-01
6.004153e-01
6.003166e-01
6.002050e-01
6.000781e-01
5.999372e-01
5.997860e-01
5.996295e-01
5.994728e-01
5.993195e-01
5.991711e-01
5.990285e-01
5.988927e-01
5.987633e-01
5.986383e-01
5.985093e-01
5.983159e-01
5.980001e-01
5.975563e-01
5.969823e-01
5.962756e-01
5.954325e-01
5.944459e-01
5.933066e-01
5.920041e-01
5.905276e-01
5.888633e-01
5.869937e-01
5.848937e-01
5.825333e-01
5.798843e-01
5.769210e-01
5.736165e-01
5.699377e-01
5.658393e-01
5.612509e-01
5.560999e-01
5.502124e-01
5.436376e-01
5.353284e-01
5.278566e-01
5.258221e-01
5.253271e-01
5.239998e-01
5.167033e-01
1.311498e-01
-1.399071e-01
-5.804377e-02
-7.446710e-02
-6.580529e-02
-6.453941e-02
-6.172414e-02
-5.962550e-02
-5.755040e-02
-5.562827e-02
-5.379826e-02
-5.206991e-02
-5.044066e-02
-4.891127e-02
-4.747748e-02
-4.613162e-02
-4.486632e-02
-4.367587e-02
-4.255397e-02
-4.149346e-02
-4.048006e-02
-3.942070e-02
-3.823897e-02
-3.694978e-02
-3.557007e-02
-3.411497e-02
-3.259725e-02
-3.102632e-02
-2.940963e-02
-2.775448e-02
-2.606789e-02
-2.435602e-02
-2.262367e-02
-2.087340e-02
-1.910667e-02
-1.732704e-02
-1.554062e-02
-1.375441e-02
-1.197498e-02
-1.020773e-02
-8.454494e-03
-6.723081e-03
-4.997869e-03
-3.351126e-03
-1.523890e-03

SCALARS is float 1
LOOKUP_TABLE default
-8.168315e-01
-4.181114e-03
-8.168315e-01
-8.168315e-01
-8.168315e-01
-8.168315e-01
-8.168315e-01
-8.168315e-01
-8.168315e-01
-8.168315e-01
-8.168315e-01
-8.168315e-01
-8.168315e-01
-8.168315e-01
-8.168315e-01
-8.168315e-01
-8.168315e-01
-8.168315e-01
-8.168315e-01
-8.168315e-01
-8.168315e-01
-8.168315e-01
-8.168315e-01
-8.168315e-01
-8.168315e-01
-8.168315e-01
-8.168315e-01
-8.168315e-01
-8.168315e-01
-8.168315e-01
-8.168315e-01
-8.168315e-01
-8.168315e-01
-8.168315e-01
-8.168315e-01
-8.168315e-01
-8.168315e-01
-8.168315e-01
-8.168315e-01
-8.168315e-01
-8.168315e-01
-8.168315e-01
-8.168315e-01
-8.168315e-01
-8.168315e-01
-8.168315e-01
-8.168315e-01
-8.168315e-01
-8.168315e-01
-8.168315e-01
-8.168315e-01
-8.168315e-01
-8.168315e-01
-8.168315e-01
-8.168315e-01
-8.168315e-01
-8.168315e-01
-8.168315e-01
-8.168315e-01
-8.168315e-01
-8.168315e-01
-8.168315e-01
-8.168315e-01
-8.168315e-01
-8.168315e-01
-8.168315e-01
-8.168315e-01
-8.168315e-01
-8.168315e-01
-8.168315e-01
-8.168315e-01
-8.168315e-01
-8.168315e-01
-8.168315e-01
-8.168315e-01
-8.168315e-01
-8.168315e-01
-8.168315e-01
-8.168315e-01
-8.168315e-01
-8.168315e-01
-8.168315e-01
-8.168315e-01
-8.168315e-01
-8.168315e-01
-8.168315e-01
-8.168315e-01
-8.168315e-01
-8.168315e-01
-8.168315e-01
-8.168315e-01
-8.168315e-01
-8.168315e-01
-8.168315e-01
-8.168315e-01
-8.168315e-01
-8.168315e-01
-8.168315e-01
-8.168315e-01
-8.168315e-01
-8.168315e-01
-8.168315e-01
2.550272e-02
8.141322e-02
1.346137e-01
1.881064e-01
2.409427e-01
2.932489e-01
3.448838e-01
3.957943e-01
4.459125e-01
4.951824e-01
5.435561e-01
5.909986e-01
6.374902e-01
6.829692e-01
7.273127e-01
7.703926e-01
8.120913e-01
8.523021e-01
8.909340e-01
9.279108e-01
9.631656e-01
9.966322e-01
1.028268e+00
1.057983e+00
1.085949e+00
1.113228e+00
1.140454e+00
1.167410e+00
1.193995e+00
1.220089e+00
1.245592e+00
1.270423e+00
1.294509e+00
1.317787e+00
1.340197e+00
1.361691e+00
1.382233e+00
1.401804e+00
1.420339e+00
1.437713e+00
1.453796e+00
1.468466e+00
1.481616e+00
1.493151e+00
1.502998e+00
1.511067e+00
1.517373e+00
1.521566e+00
1.524697e+00
1.522675e+00
1.549656e+00
1.606290e+00
1.659297e+00
1.712842e+00
1.765664e+00
1.817974e+00
1.869608e+00
1.920519e+00
1.970637e+00
2.019907e+00
2.068280e+00
2.115723e+00
2.162214e+00
2.207693e+00
2.252037e+00
2.295117e+00
2.336815e+00
2.377026e+00
2.415658e+00
2.452635e+00
2.487890e+00
2.521356e+00
2.552992e+00
2.582708e+00
2.610673e+00
2.637952e+00
2.665178e+00
2.692134e+00
2.718719e+00
2.744813e+00
2.770317e+00
2.795147e+00
2.819234e+00
2.842511e+00
2.864921e+00
2.886415e+00
2.906957e+00
2.926528e+00
2.945060e+00
2.962447e+00
2.978482e+00
2.993331e+00
3.005816e+00
3.019830e+00
3.020424e+00
3.063028e+00
2.940450e+00
3.425641e+00
1.633663e+00

CELL_DATA 200
SCALARS mat_id int 1
LOOKUP_TABLE default
1
1
1
1
1
1
1
1
1
1
1
1
1
1
1
1
1
1
1
1
1
1
1
1
1
1
1
1
1
1
1
1
1
1
1
1
1
1
1
1
1
1
1
1
1
1
1
1
1
1
1
1
1
1
1
1
1
1
1
1
1
1
1
1
1
1
1
1
1
1
1
1
1
1
1
1
1
1
1
1
1
1
1
1
1
1
1
1
1
1
1
1
1
1
1
1
1
1
1
1
2
2
2
2
2
2
2
2
2
2
2
2
2
2
2
2
2
2
2
2
2
2
2
2
2
2
2
2
2
2
2
2
2
2
2
2
2
2
2
2
2
2
2
2
2
2
2
2
2
2
2
2
2
2
2
2
2
2
2
2
2
2
2
2
2
2
2
2
2
2
2
2
2
2
2
2
2
2
2
2
2
2
2
2
2
2
2
2
2
2
2
2
2
2
2
2
2
2
2
2
