# vtk DataFile Version 2.0
step 13 time 5.416667e-02 normalized time 5.416667e-01, generated by simple.py
ASCII
DATASET UNSTRUCTURED_GRID

POINTS 201 float
0.000000e+00 0.000000e+00 0.000000e+00
1.000000e+00 0.000000e+00 0.000000e+00
2.000000e+00 0.000000e+00 0.000000e+00
1.000000e-02 0.000000e+00 0.000000e+00
2.000000e-02 0.000000e+00 0.000000e+00
3.000000e-02 0.000000e+00 0.000000e+00
4.000000e-02 0.000000e+00 0.000000e+00
5.000000e-02 0.000000e+00 0.000000e+00
6.000000e-02 0.000000e+00 0.000000e+00
7.000000e-02 0.000000e+00 0.000000e+00
8.000000e-02 0.000000e+00 0.000000e+00
9.000000e-02 0.000000e+00 0.000000e+00
1.000000e-01 0.000000e+00 0.000000e+00
1.100000e-01 0.000000e+00 0.000000e+00
1.200000e-01 0.000000e+00 0.000000e+00
1.300000e-01 0.000000e+00 0.000000e+00
1.400000e-01 0.000000e+00 0.000000e+00
1.500000e-01 0.000000e+00 0.000000e+00
1.600000e-01 0.000000e+00 0.000000e+00
1.700000e-01 0.000000e+00 0.000000e+00
1.800000e-01 0.000000e+00 0.000000e+00
1.900000e-01 0.000000e+00 0.000000e+00
2.000000e-01 0.000000e+00 0.000000e+00
2.100000e-01 0.000000e+00 0.000000e+00
2.200000e-01 0.000000e+00 0.000000e+00
2.300000e-01 0.000000e+00 0.000000e+00
2.400000e-01 0.000000e+00 0.000000e+00
2.500000e-01 0.000000e+00 0.000000e+00
2.600000e-01 0.000000e+00 0.000000e+00
2.700000e-01 0.000000e+00 0.000000e+00
2.800000e-01 0.000000e+00 0.000000e+00
2.900000e-01 0.000000e+00 0.000000e+00
3.000000e-01 0.000000e+00 0.000000e+00
3.100000e-01 0.000000e+00 0.000000e+00
3.200000e-01 0.000000e+00 0.000000e+00
3.300000e-01 0.000000e+00 0.000000e+00
3.400000e-01 0.000000e+00 0.000000e+00
3.500000e-01 0.000000e+00 0.000000e+00
3.600000e-01 0.000000e+00 0.000000e+00
3.700000e-01 0.000000e+00 0.000000e+00
3.800000e-01 0.000000e+00 0.000000e+00
3.900000e-01 0.000000e+00 0.000000e+00
4.000000e-01 0.000000e+00 0.000000e+00
4.100000e-01 0.000000e+00 0.000000e+00
4.200000e-01 0.000000e+00 0.000000e+00
4.300000e-01 0.000000e+00 0.000000e+00
4.400000e-01 0.000000e+00 0.000000e+00
4.500000e-01 0.000000e+00 0.000000e+00
4.600000e-01 0.000000e+00 0.000000e+00
4.700000e-01 0.000000e+00 0.000000e+00
4.800000e-01 0.000000e+00 0.000000e+00
4.900000e-01 0.000000e+00 0.000000e+00
5.000000e-01 0.000000e+00 0.000000e+00
5.100000e-01 0.000000e+00 0.000000e+00
5.200000e-01 0.000000e+00 0.000000e+00
5.300000e-01 0.000000e+00 0.000000e+00
5.400000e-01 0.000000e+00 0.000000e+00
5.500000e-01 0.000000e+00 0.000000e+00
5.600000e-01 0.000000e+00 0.000000e+00
5.700000e-01 0.000000e+00 0.000000e+00
5.800000e-01 0.000000e+00 0.000000e+00
5.900000e-01 0.000000e+00 0.000000e+00
6.000000e-01 0.000000e+00 0.000000e+00
6.100000e-01 0.000000e+00 0.000000e+00
6.200000e-01 0.000000e+00 0.000000e+00
6.300000e-01 0.000000e+00 0.000000e+00
6.400000e-01 0.000000e+00 0.000000e+00
6.500000e-01 0.000000e+00 0.000000e+00
6.600000e-01 0.000000e+00 0.000000e+00
6.700000e-01 0.000000e+00 0.000000e+00
6.800000e-01 0.000000e+00 0.000000e+00
6.900000e-01 0.000000e+00 0.000000e+00
7.000000e-01 0.000000e+00 0.000000e+00
7.100000e-01 0.000000e+00 0.000000e+00
7.200000e-01 0.000000e+00 0.000000e+00
7.300000e-01 0.000000e+00 0.000000e+00
7.400000e-01 0.000000e+00 0.000000e+00
7.500000e-01 0.000000e+00 0.000000e+00
7.600000e-01 0.000000e+00 0.000000e+00
7.700000e-01 0.000000e+00 0.000000e+00
7.800000e-01 0.000000e+00 0.000000e+00
7.900000e-01 0.000000e+00 0.000000e+00
8.000000e-01 0.000000e+00 0.000000e+00
8.100000e-01 0.000000e+00 0.000000e+00
8.200000e-01 0.000000e+00 0.000000e+00
8.300000e-01 0.000000e+00 0.000000e+00
8.400000e-01 0.000000e+00 0.000000e+00
8.500000e-01 0.000000e+00 0.000000e+00
8.600000e-01 0.000000e+00 0.000000e+00
8.700000e-01 0.000000e+00 0.000000e+00
8.800000e-01 0.000000e+00 0.000000e+00
8.900000e-01 0.000000e+00 0.000000e+00
9.000000e-01 0.000000e+00 0.000000e+00
9.100000e-01 0.000000e+00 0.000000e+00
9.200000e-01 0.000000e+00 0.000000e+00
9.300000e-01 0.000000e+00 0.000000e+00
9.400000e-01 0.000000e+00 0.000000e+00
9.500000e-01 0.000000e+00 0.000000e+00
9.600000e-01 0.000000e+00 0.000000e+00
9.700000e-01 0.000000e+00 0.000000e+00
9.800000e-01 0.000000e+00 0.000000e+00
9.900000e-01 0.000000e+00 0.000000e+00
1.010000e+00 0.000000e+00 0.000000e+00
1.020000e+00 0.000000e+00 0.000000e+00
1.030000e+00 0.000000e+00 0.000000e+00
1.040000e+00 0.000000e+00 0.000000e+00
1.050000e+00 0.000000e+00 0.000000e+00
1.060000e+00 0.000000e+00 0.000000e+00
1.070000e+00 0.000000e+00 0.000000e+00
1.080000e+00 0.000000e+00 0.000000e+00
1.090000e+00 0.000000e+00 0.000000e+00
1.100000e+00 0.000000e+00 0.000000e+00
1.110000e+00 0.000000e+00 0.000000e+00
1.120000e+00 0.000000e+00 0.000000e+00
1.130000e+00 0.000000e+00 0.000000e+00
1.140000e+00 0.000000e+00 0.000000e+00
1.150000e+00 0.000000e+00 0.000000e+00
1.160000e+00 0.000000e+00 0.000000e+00
1.170000e+00 0.000000e+00 0.000000e+00
1.180000e+00 0.000000e+00 0.000000e+00
1.190000e+00 0.000000e+00 0.000000e+00
1.200000e+00 0.000000e+00 0.000000e+00
1.210000e+00 0.000000e+00 0.000000e+00
1.220000e+00 0.000000e+00 0.000000e+00
1.230000e+00 0.000000e+00 0.000000e+00
1.240000e+00 0.000000e+00 0.000000e+00
1.250000e+00 0.000000e+00 0.000000e+00
1.260000e+00 0.000000e+00 0.000000e+00
1.270000e+00 0.000000e+00 0.000000e+00
1.280000e+00 0.000000e+00 0.000000e+00
1.290000e+00 0.000000e+00 0.000000e+00
1.300000e+00 0.000000e+00 0.000000e+00
1.310000e+00 0.000000e+00 0.000000e+00
1.320000e+00 0.000000e+00 0.000000e+00
1.330000e+00 0.000000e+00 0.000000e+00
1.340000e+00 0.000000e+00 0.000000e+00
1.350000e+00 0.000000e+00 0.000000e+00
1.360000e+00 0.000000e+00 0.000000e+00
1.370000e+00 0.000000e+00 0.000000e+00
1.380000e+00 0.000000e+00 0.000000e+00
1.390000e+00 0.000000e+00 0.000000e+00
1.400000e+00 0.000000e+00 0.000000e+00
1.410000e+00 0.000000e+00 0.000000e+00
1.420000e+00 0.000000e+00 0.000000e+00
1.430000e+00 0.000000e+00 0.000000e+00
1.440000e+00 0.000000e+00 0.000000e+00
1.450000e+00 0.000000e+00 0.000000e+00
1.460000e+00 0.000000e+00 0.000000e+00
1.470000e+00 0.000000e+00 0.000000e+00
1.480000e+00 0.000000e+00 0.000000e+00
1.490000e+00 0.000000e+00 0.000000e+00
1.500000e+00 0.000000e+00 0.000000e+00
1.510000e+00 0.000000e+00 0.000000e+00
1.520000e+00 0.000000e+00 0.000000e+00
1.530000e+00 0.000000e+00 0.000000e+00
1.540000e+00 0.000000e+00 0.000000e+00
1.550000e+00 0.000000e+00 0.000000e+00
1.560000e+00 0.000000e+00 0.000000e+00
1.570000e+00 0.000000e+00 0.000000e+00
1.580000e+00 0.000000e+00 0.000000e+00
1.590000e+00 0.000000e+00 0.000000e+00
1.600000e+00 0.000000e+00 0.000000e+00
1.610000e+00 0.000000e+00 0.000000e+00
1.620000e+00 0.000000e+00 0.000000e+00
1.630000e+00 0.000000e+00 0.000000e+00
1.640000e+00 0.000000e+00 0.000000e+00
1.650000e+00 0.000000e+00 0.000000e+00
1.660000e+00 0.000000e+00 0.000000e+00
1.670000e+00 0.000000e+00 0.000000e+00
1.680000e+00 0.000000e+00 0.000000e+00
1.690000e+00 0.000000e+00 0.000000e+00
1.700000e+00 0.000000e+00 0.000000e+00
1.710000e+00 0.000000e+00 0.000000e+00
1.720000e+00 0.000000e+00 0.000000e+00
1.730000e+00 0.000000e+00 0.000000e+00
1.740000e+00 0.000000e+00 0.000000e+00
1.750000e+00 0.000000e+00 0.000000e+00
1.760000e+00 0.000000e+00 0.000000e+00
1.770000e+00 0.000000e+00 0.000000e+00
1.780000e+00 0.000000e+00 0.000000e+00
1.790000e+00 0.000000e+00 0.000000e+00
1.800000e+00 0.000000e+00 0.000000e+00
1.810000e+00 0.000000e+00 0.000000e+00
1.820000e+00 0.000000e+00 0.000000e+00
1.830000e+00 0.000000e+00 0.000000e+00
1.840000e+00 0.000000e+00 0.000000e+00
1.850000e+00 0.000000e+00 0.000000e+00
1.860000e+00 0.000000e+00 0.000000e+00
1.870000e+00 0.000000e+00 0.000000e+00
1.880000e+00 0.000000e+00 0.000000e+00
1.890000e+00 0.000000e+00 0.000000e+00
1.900000e+00 0.000000e+00 0.000000e+00
1.910000e+00 0.000000e+00 0.000000e+00
1.920000e+00 0.000000e+00 0.000000e+00
1.930000e+00 0.000000e+00 0.000000e+00
1.940000e+00 0.000000e+00 0.000000e+00
1.950000e+00 0.000000e+00 0.000000e+00
1.960000e+00 0.000000e+00 0.000000e+00
1.970000e+00 0.000000e+00 0.000000e+00
1.980000e+00 0.000000e+00 0.000000e+00
1.990000e+00 0.000000e+00 0.000000e+00

CELLS 200 600
2 0 3 
2 3 4 
2 4 5 
2 5 6 
2 6 7 
2 7 8 
2 8 9 
2 9 10 
2 10 11 
2 11 12 
2 12 13 
2 13 14 
2 14 15 
2 15 16 
2 16 17 
2 17 18 
2 18 19 
2 19 20 
2 20 21 
2 21 22 
2 22 23 
2 23 24 
2 24 25 
2 25 26 
2 26 27 
2 27 28 
2 28 29 
2 29 30 
2 30 31 
2 31 32 
2 32 33 
2 33 34 
2 34 35 
2 35 36 
2 36 37 
2 37 38 
2 38 39 
2 39 40 
2 40 41 
2 41 42 
2 42 43 
2 43 44 
2 44 45 
2 45 46 
2 46 47 
2 47 48 
2 48 49 
2 49 50 
2 50 51 
2 51 52 
2 52 53 
2 53 54 
2 54 55 
2 55 56 
2 56 57 
2 57 58 
2 58 59 
2 59 60 
2 60 61 
2 61 62 
2 62 63 
2 63 64 
2 64 65 
2 65 66 
2 66 67 
2 67 68 
2 68 69 
2 69 70 
2 70 71 
2 71 72 
2 72 73 
2 73 74 
2 74 75 
2 75 76 
2 76 77 
2 77 78 
2 78 79 
2 79 80 
2 80 81 
2 81 82 
2 82 83 
2 83 84 
2 84 85 
2 85 86 
2 86 87 
2 87 88 
2 88 89 
2 89 90 
2 90 91 
2 91 92 
2 92 93 
2 93 94 
2 94 95 
2 95 96 
2 96 97 
2 97 98 
2 98 99 
2 99 100 
2 100 101 
2 101 1 
2 1 102 
2 102 103 
2 103 104 
2 104 105 
2 105 106 
2 106 107 
2 107 108 
2 108 109 
2 109 110 
2 110 111 
2 111 112 
2 112 113 
2 113 114 
2 114 115 
2 115 116 
2 116 117 
2 117 118 
2 118 119 
2 119 120 
2 120 121 
2 121 122 
2 122 123 
2 123 124 
2 124 125 
2 125 126 
2 126 127 
2 127 128 
2 128 129 
2 129 130 
2 130 131 
2 131 132 
2 132 133 
2 133 134 
2 134 135 
2 135 136 
2 136 137 
2 137 138 
2 138 139 
2 139 140 
2 140 141 
2 141 142 
2 142 143 
2 143 144 
2 144 145 
2 145 146 
2 146 147 
2 147 148 
2 148 149 
2 149 150 
2 150 151 
2 151 152 
2 152 153 
2 153 154 
2 154 155 
2 155 156 
2 156 157 
2 157 158 
2 158 159 
2 159 160 
2 160 161 
2 161 162 
2 162 163 
2 163 164 
2 164 165 
2 165 166 
2 166 167 
2 167 168 
2 168 169 
2 169 170 
2 170 171 
2 171 172 
2 172 173 
2 173 174 
2 174 175 
2 175 176 
2 176 177 
2 177 178 
2 178 179 
2 179 180 
2 180 181 
2 181 182 
2 182 183 
2 183 184 
2 184 185 
2 185 186 
2 186 187 
2 187 188 
2 188 189 
2 189 190 
2 190 191 
2 191 192 
2 192 193 
2 193 194 
2 194 195 
2 195 196 
2 196 197 
2 197 198 
2 198 199 
2 199 200 
2 200 2 

CELL_TYPES 200
3
3
3
3
3
3
3
3
3
3
3
3
3
3
3
3
3
3
3
3
3
3
3
3
3
3
3
3
3
3
3
3
3
3
3
3
3
3
3
3
3
3
3
3
3
3
3
3
3
3
3
3
3
3
3
3
3
3
3
3
3
3
3
3
3
3
3
3
3
3
3
3
3
3
3
3
3
3
3
3
3
3
3
3
3
3
3
3
3
3
3
3
3
3
3
3
3
3
3
3
3
3
3
3
3
3
3
3
3
3
3
3
3
3
3
3
3
3
3
3
3
3
3
3
3
3
3
3
3
3
3
3
3
3
3
3
3
3
3
3
3
3
3
3
3
3
3
3
3
3
3
3
3
3
3
3
3
3
3
3
3
3
3
3
3
3
3
3
3
3
3
3
3
3
3
3
3
3
3
3
3
3
3
3
3
3
3
3
3
3
3
3
3
3
3
3
3
3
3
3

POINT_DATA 201

SCALARS node_groups int 1
LOOKUP_TABLE default
1
2
3
1
1
1
1
1
1
1
1
1
1
1
1
1
1
1
1
1
1
1
1
1
1
1
1
1
1
1
1
1
1
1
1
1
1
1
1
1
1
1
1
1
1
1
1
1
1
1
1
1
1
1
1
1
1
1
1
1
1
1
1
1
1
1
1
1
1
1
1
1
1
1
1
1
1
1
1
1
1
1
1
1
1
1
1
1
1
1
1
1
1
1
1
1
1
1
1
1
1
1
2
2
2
2
2
2
2
2
2
2
2
2
2
2
2
2
2
2
2
2
2
2
2
2
2
2
2
2
2
2
2
2
2
2
2
2
2
2
2
2
2
2
2
2
2
2
2
2
2
2
2
2
2
2
2
2
2
2
2
2
2
2
2
2
2
2
2
2
2
2
2
2
2
2
2
2
2
2
2
2
2
2
2
2
2
2
2
2
2
2
2
2
2
2
2
2
2
2
2

SCALARS phil float 1
LOOKUP_TABLE default
0.000000e+00
-2.590133e+00
-4.307086e+00
-2.590133e-02
-5.180267e-02
-7.770400e-02
-1.036053e-01
-1.295067e-01
-1.554080e-01
-1.813093e-01
-2.072107e-01
-2.331120e-01
-2.590133e-01
-2.849147e-01
-3.108160e-01
-3.367173e-01
-3.626187e-01
-3.885200e-01
-4.144213e-01
-4.403227e-01
-4.662240e-01
-4.921253e-01
-5.180267e-01
-5.439280e-01
-5.698293e-01
-5.957307e-01
-6.216320e-01
-6.475333e-01
-6.734347e-01
-6.993360e-01
-7.252373e-01
-7.511387e-01
-7.770400e-01
-8.029413e-01
-8.288427e-01
-8.547440e-01
-8.806453e-01
-9.065467e-01
-9.324480e-01
-9.583493e-01
-9.842507e-01
-1.010152e+00
-1.036053e+00
-1.061955e+00
-1.087856e+00
-1.113757e+00
-1.139659e+00
-1.165560e+00
-1.191461e+00
-1.217363e+00
-1.243264e+00
-1.269165e+00
-1.295067e+00
-1.320968e+00
-1.346869e+00
-1.372771e+00
-1.398672e+00
-1.424573e+00
-1.450475e+00
-1.476376e+00
-1.502277e+00
-1.528179e+00
-1.554080e+00
-1.579981e+00
-1.605883e+00
-1.631784e+00
-1.657685e+00
-1.683587e+00
-1.709488e+00
-1.735389e+00
-1.761291e+00
-1.787192e+00
-1.813093e+00
-1.838995e+00
-1.864896e+00
-1.890797e+00
-1.916699e+00
-1.942600e+00
-1.968501e+00
-1.994403e+00
-2.020304e+00
-2.046205e+00
-2.072107e+00
-2.098008e+00
-2.123909e+00
-2.149811e+00
-2.175712e+00
-2.201613e+00
-2.227515e+00
-2.253416e+00
-2.279317e+00
-2.305219e+00
-2.331120e+00
-2.357021e+00
-2.382923e+00
-2.408824e+00
-2.434725e+00
-2.460627e+00
-2.486528e+00
-2.512429e+00
-2.538331e+00
-2.564232e+00
-2.616035e+00
-2.641936e+00
-2.667836e+00
-2.693734e+00
-2.719630e+00
-2.745520e+00
-2.771404e+00
-2.797285e+00
-2.823163e+00
-2.849040e+00
-2.874915e+00
-2.900789e+00
-2.926663e+00
-2.952535e+00
-2.978406e+00
-3.004277e+00
-3.030146e+00
-3.056015e+00
-3.081884e+00
-3.107752e+00
-3.133619e+00
-3.159485e+00
-3.185351e+00
-3.211216e+00
-3.237081e+00
-3.262945e+00
-3.288810e+00
-3.314675e+00
-3.340541e+00
-3.366409e+00
-3.392279e+00
-3.418152e+00
-3.444029e+00
-3.469910e+00
-3.495795e+00
-3.521685e+00
-3.547580e+00
-3.573482e+00
-3.599391e+00
-3.625308e+00
-3.651233e+00
-3.677167e+00
-3.703111e+00
-3.729065e+00
-3.755030e+00
-3.781008e+00
-3.806999e+00
-3.833003e+00
-3.859023e+00
-3.885058e+00
-3.911102e+00
-3.937146e+00
-3.963188e+00
-3.989228e+00
-4.015262e+00
-4.041281e+00
-4.067283e+00
-4.093277e+00
-4.119270e+00
-4.145265e+00
-4.171266e+00
-4.197278e+00
-4.223306e+00
-4.249361e+00
-4.275463e+00
-4.296306e+00
-4.297056e+00
-4.297710e+00
-4.298314e+00
-4.298883e+00
-4.299424e+00
-4.299942e+00
-4.300440e+00
-4.300920e+00
-4.301384e+00
-4.301833e+00
-4.302266e+00
-4.302682e+00
-4.303080e+00
-4.303460e+00
-4.303821e+00
-4.304163e+00
-4.304486e+00
-4.304790e+00
-4.305074e+00
-4.305340e+00
-4.305586e+00
-4.305813e+00
-4.306021e+00
-4.306210e+00
-4.306380e+00
-4.306531e+00
-4.306663e+00
-4.306777e+00
-4.306873e+00
-4.306950e+00
-4.307010e+00
-4.307053e+00
-4.307078e+00

SCALARS phis float 1
LOOKUP_TABLE default
7.000000e-01
8.503201e-01
7.000000e-01
7.000000e-01
7.000000e-01
7.000000e-01
7.000000e-01
7.000000e-01
7.000000e-01
7.000000e-01
7.000000e-01
7.000000e-01
7.000000e-01
7.000000e-01
7.000000e-01
7.000000e-01
7.000000e-01
7.000000e-01
7.000000e-01
7.000000e-01
7.000000e-01
7.000000e-01
7.000000e-01
7.000000e-01
7.000000e-01
7.000000e-01
7.000000e-01
7.000000e-01
7.000000e-01
7.000000e-01
7.000000e-01
7.000000e-01
7.000000e-01
7.000000e-01
7.000000e-01
7.000000e-01
7.000000e-01
7.000000e-01
7.000000e-01
7.000000e-01
7.000000e-01
7.000000e-01
7.000000e-01
7.000000e-01
7.000000e-01
7.000000e-01
7.000000e-01
7.000000e-01
7.000000e-01
7.000000e-01
7.000000e-01
7.000000e-01
7.000000e-01
7.000000e-01
7.000000e-01
7.000000e-01
7.000000e-01
7.000000e-01
7.000000e-01
7.000000e-01
7.000000e-01
7.000000e-01
7.000000e-01
7.000000e-01
7.000000e-01
7.000000e-01
7.000000e-01
7.000000e-01
7.000000e-01
7.000000e-01
7.000000e-01
7.000000e-01
7.000000e-01
7.000000e-01
7.000000e-01
7.000000e-01
7.000000e-01
7.000000e-01
7.000000e-01
7.000000e-01
7.000000e-01
7.000000e-01
7.000000e-01
7.000000e-01
7.000000e-01
7.000000e-01
7.000000e-01
7.000000e-01
7.000000e-01
7.000000e-01
7.000000e-01
7.000000e-01
7.000000e-01
7.000000e-01
7.000000e-01
7.000000e-01
7.000000e-01
7.000000e-01
7.000000e-01
7.000000e-01
7.000000e-01
7.000000e-01
8.503150e-01
8.502674e-01
8.501723e-01
8.500299e-01
8.498408e-01
8.496053e-01
8.493240e-01
8.489975e-01
8.486264e-01
8.482116e-01
8.477537e-01
8.472537e-01
8.467122e-01
8.461303e-01
8.455087e-01
8.448487e-01
8.441513e-01
8.434179e-01
8.426497e-01
8.418483e-01
8.410151e-01
8.401516e-01
8.392594e-01
8.383403e-01
8.373959e-01
8.364272e-01
8.354346e-01
8.344181e-01
8.333780e-01
8.323148e-01
8.312289e-01
8.301209e-01
8.289913e-01
8.278409e-01
8.266705e-01
8.254807e-01
8.242724e-01
8.230466e-01
8.218039e-01
8.205455e-01
8.192724e-01
8.179858e-01
8.166869e-01
8.153772e-01
8.140581e-01
8.127311e-01
8.113979e-01
8.100599e-01
8.087190e-01
8.073768e-01
8.060294e-01
8.046394e-01
8.032019e-01
8.017172e-01
8.001857e-01
7.986078e-01
7.969841e-01
7.953153e-01
7.936019e-01
7.918447e-01
7.900445e-01
7.882021e-01
7.863182e-01
7.843939e-01
7.824300e-01
7.804276e-01
7.783879e-01
7.763121e-01
7.742016e-01
7.720578e-01
7.698822e-01
7.676763e-01
7.654418e-01
7.631804e-01
7.608935e-01
7.585825e-01
7.562475e-01
7.538887e-01
7.515063e-01
7.491007e-01
7.466724e-01
7.442220e-01
7.417501e-01
7.392574e-01
7.367445e-01
7.342124e-01
7.316618e-01
7.290935e-01
7.265086e-01
7.239078e-01
7.212923e-01
7.186633e-01
7.160221e-01
7.133700e-01
7.107086e-01
7.080392e-01
7.053636e-01
7.026833e-01
7.000000e-01

SCALARS il float 1
LOOKUP_TABLE default
-2.590133e+00
-2.590133e+00
-4.867684e-04
-2.590133e+00
-2.590133e+00
-2.590133e+00
-2.590133e+00
-2.590133e+00
-2.590133e+00
-2.590133e+00
-2.590133e+00
-2.590133e+00
-2.590133e+00
-2.590133e+00
-2.590133e+00
-2.590133e+00
-2.590133e+00
-2.590133e+00
-2.590133e+00
-2.590133e+00
-2.590133e+00
-2.590133e+00
-2.590133e+00
-2.590133e+00
-2.590133e+00
-2.590133e+00
-2.590133e+00
-2.590133e+00
-2.590133e+00
-2.590133e+00
-2.590133e+00
-2.590133e+00
-2.590133e+00
-2.590133e+00
-2.590133e+00
-2.590133e+00
-2.590133e+00
-2.590133e+00
-2.590133e+00
-2.590133e+00
-2.590133e+00
-2.590133e+00
-2.590133e+00
-2.590133e+00
-2.590133e+00
-2.590133e+00
-2.590133e+00
-2.590133e+00
-2.590133e+00
-2.590133e+00
-2.590133e+00
-2.590133e+00
-2.590133e+00
-2.590133e+00
-2.590133e+00
-2.590133e+00
-2.590133e+00
-2.590133e+00
-2.590133e+00
-2.590133e+00
-2.590133e+00
-2.590133e+00
-2.590133e+00
-2.590133e+00
-2.590133e+00
-2.590133e+00
-2.590133e+00
-2.590133e+00
-2.590133e+00
-2.590133e+00
-2.590133e+00
-2.590133e+00
-2.590133e+00
-2.590133e+00
-2.590133e+00
-2.590133e+00
-2.590133e+00
-2.590133e+00
-2.590133e+00
-2.590133e+00
-2.590133e+00
-2.590133e+00
-2.590133e+00
-2.590133e+00
-2.590133e+00
-2.590133e+00
-2.590133e+00
-2.590133e+00
-2.590133e+00
-2.590133e+00
-2.590133e+00
-2.590133e+00
-2.590133e+00
-2.590133e+00
-2.590133e+00
-2.590133e+00
-2.590133e+00
-2.590133e+00
-2.590133e+00
-2.590133e+00
-2.590133e+00
-2.590133e+00
-2.590115e+00
-2.590058e+00
-2.589937e+00
-2.589749e+00
-2.589336e+00
-2.588693e+00
-2.588214e+00
-2.587952e+00
-2.587746e+00
-2.587591e+00
-2.587465e+00
-2.587358e+00
-2.587262e+00
-2.587174e+00
-2.587093e+00
-2.587017e+00
-2.586944e+00
-2.586873e+00
-2.586804e+00
-2.586737e+00
-2.586674e+00
-2.586613e+00
-2.586554e+00
-2.586498e+00
-2.586446e+00
-2.586426e+00
-2.586462e+00
-2.586557e+00
-2.586706e+00
-2.586910e+00
-2.587167e+00
-2.587479e+00
-2.587846e+00
-2.588268e+00
-2.588747e+00
-2.589284e+00
-2.589881e+00
-2.590540e+00
-2.591266e+00
-2.592062e+00
-2.592930e+00
-2.593870e+00
-2.594884e+00
-2.595974e+00
-2.597146e+00
-2.598402e+00
-2.599756e+00
-2.601176e+00
-2.602804e+00
-2.604147e+00
-2.604444e+00
-2.604300e+00
-2.604142e+00
-2.603815e+00
-2.602774e+00
-2.600914e+00
-2.599665e+00
-2.599308e+00
-2.599315e+00
-2.599727e+00
-2.600568e+00
-2.601835e+00
-2.604119e+00
-2.606600e+00
-2.616683e+00
-1.010165e+00
1.794824e-01
-1.290410e-01
-4.068087e-02
-6.019570e-02
-5.161936e-02
-5.108809e-02
-4.876610e-02
-4.719777e-02
-4.563455e-02
-4.410958e-02
-4.245458e-02
-4.071048e-02
-3.890186e-02
-3.704928e-02
-3.516647e-02
-3.326312e-02
-3.134654e-02
-2.942309e-02
-2.749811e-02
-2.557561e-02
-2.365830e-02
-2.174736e-02
-1.984038e-02
-1.793682e-02
-1.604300e-02
-1.416553e-02
-1.230824e-02
-1.047375e-02
-8.661900e-03
-6.879243e-03
-5.108508e-03
-3.422487e-03
-1.555954e-03

SCALARS is float 1
LOOKUP_TABLE default
-7.191363e-01
-3.686162e-03
-7.191363e-01
-7.191363e-01
-7.191363e-01
-7.191363e-01
-7.191363e-01
-7.191363e-01
-7.191363e-01
-7.191363e-01
-7.191363e-01
-7.191363e-01
-7.191363e-01
-7.191363e-01
-7.191363e-01
-7.191363e-01
-7.191363e-01
-7.191363e-01
-7.191363e-01
-7.191363e-01
-7.191363e-01
-7.191363e-01
-7.191363e-01
-7.191363e-01
-7.191363e-01
-7.191363e-01
-7.191363e-01
-7.191363e-01
-7.191363e-01
-7.191363e-01
-7.191363e-01
-7.191363e-01
-7.191363e-01
-7.191363e-01
-7.191363e-01
-7.191363e-01
-7.191363e-01
-7.191363e-01
-7.191363e-01
-7.191363e-01
-7.191363e-01
-7.191363e-01
-7.191363e-01
-7.191363e-01
-7.191363e-01
-7.191363e-01
-7.191363e-01
-7.191363e-01
-7.191363e-01
-7.191363e-01
-7.191363e-01
-7.191363e-01
-7.191363e-01
-7.191363e-01
-7.191363e-01
-7.191363e-01
-7.191363e-01
-7.191363e-01
-7.191363e-01
-7.191363e-01
-7.191363e-01
-7.191363e-01
-7.191363e-01
-7.191363e-01
-7.191363e-01
-7.191363e-01
-7.191363e-01
-7.191363e-01
-7.191363e-01
-7.191363e-01
-7.191363e-01
-7.191363e-01
-7.191363e-01
-7.191363e-01
-7.191363e-01
-7.191363e-01
-7.191363e-01
-7.191363e-01
-7.191363e-01
-7.191363e-01
-7.191363e-01
-7.191363e-01
-7.191363e-01
-7.191363e-01
-7.191363e-01
-7.191363e-01
-7.191363e-01
-7.191363e-01
-7.191363e-01
-7.191363e-01
-7.191363e-01
-7.191363e-01
-7.191363e-01
-7.191363e-01
-7.191363e-01
-7.191363e-01
-7.191363e-01
-7.191363e-01
-7.191363e-01
-7.191363e-01
-7.191363e-01
-7.191363e-01
2.248381e-02
7.177516e-02
1.186757e-01
1.658319e-01
2.124070e-01
2.585121e-01
3.040224e-01
3.488907e-01
3.930570e-01
4.364720e-01
4.790937e-01
5.208916e-01
5.618486e-01
6.019102e-01
6.409678e-01
6.789082e-01
7.156280e-01
7.510333e-01
7.850443e-01
8.175939e-01
8.486233e-01
8.780747e-01
9.059110e-01
9.320549e-01
9.566562e-01
9.806530e-01
1.004603e+00
1.028314e+00
1.051697e+00
1.074647e+00
1.097076e+00
1.118911e+00
1.140090e+00
1.160555e+00
1.180256e+00
1.199149e+00
1.217203e+00
1.234402e+00
1.250690e+00
1.265956e+00
1.280085e+00
1.292971e+00
1.304521e+00
1.314649e+00
1.323295e+00
1.330378e+00
1.335913e+00
1.339590e+00
1.342340e+00
1.340554e+00
1.364342e+00
1.414271e+00
1.461001e+00
1.508203e+00
1.554766e+00
1.600874e+00
1.646384e+00
1.691252e+00
1.735418e+00
1.778833e+00
1.821455e+00
1.863253e+00
1.904210e+00
1.944272e+00
1.983329e+00
2.021270e+00
2.057989e+00
2.093395e+00
2.127406e+00
2.159955e+00
2.190985e+00
2.220436e+00
2.248272e+00
2.274416e+00
2.299018e+00
2.323014e+00
2.346964e+00
2.370675e+00
2.394059e+00
2.417008e+00
2.439437e+00
2.461273e+00
2.482451e+00
2.502917e+00
2.522617e+00
2.541510e+00
2.559565e+00
2.576764e+00
2.593049e+00
2.608326e+00
2.622413e+00
2.635456e+00
2.646421e+00
2.658732e+00
2.659232e+00
2.696719e+00
2.588785e+00
3.015931e+00
1.438273e+00

CELL_DATA 200
SCALARS mat_id int 1
LOOKUP_TABLE default
1
1
1
1
1
1
1
1
1
1
1
1
1
1
1
1
1
1
1
1
1
1
1
1
1
1
1
1
1
1
1
1
1
1
1
1
1
1
1
1
1
1
1
1
1
1
1
1
1
1
1
1
1
1
1
1
1
1
1
1
1
1
1
1
1
1
1
1
1
1
1
1
1
1
1
1
1
1
1
1
1
1
1
1
1
1
1
1
1
1
1
1
1
1
1
1
1
1
1
1
2
2
2
2
2
2
2
2
2
2
2
2
2
2
2
2
2
2
2
2
2
2
2
2
2
2
2
2
2
2
2
2
2
2
2
2
2
2
2
2
2
2
2
2
2
2
2
2
2
2
2
2
2
2
2
2
2
2
2
2
2
2
2
2
2
2
2
2
2
2
2
2
2
2
2
2
2
2
2
2
2
2
2
2
2
2
2
2
2
2
2
2
2
2
2
2
2
2
2
2
