# vtk DataFile Version 2.0
step 14 time 5.833333e-02 normalized time 5.833333e-01, generated by simple.py
ASCII
DATASET UNSTRUCTURED_GRID

POINTS 201 float
0.000000e+00 0.000000e+00 0.000000e+00
1.000000e+00 0.000000e+00 0.000000e+00
2.000000e+00 0.000000e+00 0.000000e+00
1.000000e-02 0.000000e+00 0.000000e+00
2.000000e-02 0.000000e+00 0.000000e+00
3.000000e-02 0.000000e+00 0.000000e+00
4.000000e-02 0.000000e+00 0.000000e+00
5.000000e-02 0.000000e+00 0.000000e+00
6.000000e-02 0.000000e+00 0.000000e+00
7.000000e-02 0.000000e+00 0.000000e+00
8.000000e-02 0.000000e+00 0.000000e+00
9.000000e-02 0.000000e+00 0.000000e+00
1.000000e-01 0.000000e+00 0.000000e+00
1.100000e-01 0.000000e+00 0.000000e+00
1.200000e-01 0.000000e+00 0.000000e+00
1.300000e-01 0.000000e+00 0.000000e+00
1.400000e-01 0.000000e+00 0.000000e+00
1.500000e-01 0.000000e+00 0.000000e+00
1.600000e-01 0.000000e+00 0.000000e+00
1.700000e-01 0.000000e+00 0.000000e+00
1.800000e-01 0.000000e+00 0.000000e+00
1.900000e-01 0.000000e+00 0.000000e+00
2.000000e-01 0.000000e+00 0.000000e+00
2.100000e-01 0.000000e+00 0.000000e+00
2.200000e-01 0.000000e+00 0.000000e+00
2.300000e-01 0.000000e+00 0.000000e+00
2.400000e-01 0.000000e+00 0.000000e+00
2.500000e-01 0.000000e+00 0.000000e+00
2.600000e-01 0.000000e+00 0.000000e+00
2.700000e-01 0.000000e+00 0.000000e+00
2.800000e-01 0.000000e+00 0.000000e+00
2.900000e-01 0.000000e+00 0.000000e+00
3.000000e-01 0.000000e+00 0.000000e+00
3.100000e-01 0.000000e+00 0.000000e+00
3.200000e-01 0.000000e+00 0.000000e+00
3.300000e-01 0.000000e+00 0.000000e+00
3.400000e-01 0.000000e+00 0.000000e+00
3.500000e-01 0.000000e+00 0.000000e+00
3.600000e-01 0.000000e+00 0.000000e+00
3.700000e-01 0.000000e+00 0.000000e+00
3.800000e-01 0.000000e+00 0.000000e+00
3.900000e-01 0.000000e+00 0.000000e+00
4.000000e-01 0.000000e+00 0.000000e+00
4.100000e-01 0.000000e+00 0.000000e+00
4.200000e-01 0.000000e+00 0.000000e+00
4.300000e-01 0.000000e+00 0.000000e+00
4.400000e-01 0.000000e+00 0.000000e+00
4.500000e-01 0.000000e+00 0.000000e+00
4.600000e-01 0.000000e+00 0.000000e+00
4.700000e-01 0.000000e+00 0.000000e+00
4.800000e-01 0.000000e+00 0.000000e+00
4.900000e-01 0.000000e+00 0.000000e+00
5.000000e-01 0.000000e+00 0.000000e+00
5.100000e-01 0.000000e+00 0.000000e+00
5.200000e-01 0.000000e+00 0.000000e+00
5.300000e-01 0.000000e+00 0.000000e+00
5.400000e-01 0.000000e+00 0.000000e+00
5.500000e-01 0.000000e+00 0.000000e+00
5.600000e-01 0.000000e+00 0.000000e+00
5.700000e-01 0.000000e+00 0.000000e+00
5.800000e-01 0.000000e+00 0.000000e+00
5.900000e-01 0.000000e+00 0.000000e+00
6.000000e-01 0.000000e+00 0.000000e+00
6.100000e-01 0.000000e+00 0.000000e+00
6.200000e-01 0.000000e+00 0.000000e+00
6.300000e-01 0.000000e+00 0.000000e+00
6.400000e-01 0.000000e+00 0.000000e+00
6.500000e-01 0.000000e+00 0.000000e+00
6.600000e-01 0.000000e+00 0.000000e+00
6.700000e-01 0.000000e+00 0.000000e+00
6.800000e-01 0.000000e+00 0.000000e+00
6.900000e-01 0.000000e+00 0.000000e+00
7.000000e-01 0.000000e+00 0.000000e+00
7.100000e-01 0.000000e+00 0.000000e+00
7.200000e-01 0.000000e+00 0.000000e+00
7.300000e-01 0.000000e+00 0.000000e+00
7.400000e-01 0.000000e+00 0.000000e+00
7.500000e-01 0.000000e+00 0.000000e+00
7.600000e-01 0.000000e+00 0.000000e+00
7.700000e-01 0.000000e+00 0.000000e+00
7.800000e-01 0.000000e+00 0.000000e+00
7.900000e-01 0.000000e+00 0.000000e+00
8.000000e-01 0.000000e+00 0.000000e+00
8.100000e-01 0.000000e+00 0.000000e+00
8.200000e-01 0.000000e+00 0.000000e+00
8.300000e-01 0.000000e+00 0.000000e+00
8.400000e-01 0.000000e+00 0.000000e+00
8.500000e-01 0.000000e+00 0.000000e+00
8.600000e-01 0.000000e+00 0.000000e+00
8.700000e-01 0.000000e+00 0.000000e+00
8.800000e-01 0.000000e+00 0.000000e+00
8.900000e-01 0.000000e+00 0.000000e+00
9.000000e-01 0.000000e+00 0.000000e+00
9.100000e-01 0.000000e+00 0.000000e+00
9.200000e-01 0.000000e+00 0.000000e+00
9.300000e-01 0.000000e+00 0.000000e+00
9.400000e-01 0.000000e+00 0.000000e+00
9.500000e-01 0.000000e+00 0.000000e+00
9.600000e-01 0.000000e+00 0.000000e+00
9.700000e-01 0.000000e+00 0.000000e+00
9.800000e-01 0.000000e+00 0.000000e+00
9.900000e-01 0.000000e+00 0.000000e+00
1.010000e+00 0.000000e+00 0.000000e+00
1.020000e+00 0.000000e+00 0.000000e+00
1.030000e+00 0.000000e+00 0.000000e+00
1.040000e+00 0.000000e+00 0.000000e+00
1.050000e+00 0.000000e+00 0.000000e+00
1.060000e+00 0.000000e+00 0.000000e+00
1.070000e+00 0.000000e+00 0.000000e+00
1.080000e+00 0.000000e+00 0.000000e+00
1.090000e+00 0.000000e+00 0.000000e+00
1.100000e+00 0.000000e+00 0.000000e+00
1.110000e+00 0.000000e+00 0.000000e+00
1.120000e+00 0.000000e+00 0.000000e+00
1.130000e+00 0.000000e+00 0.000000e+00
1.140000e+00 0.000000e+00 0.000000e+00
1.150000e+00 0.000000e+00 0.000000e+00
1.160000e+00 0.000000e+00 0.000000e+00
1.170000e+00 0.000000e+00 0.000000e+00
1.180000e+00 0.000000e+00 0.000000e+00
1.190000e+00 0.000000e+00 0.000000e+00
1.200000e+00 0.000000e+00 0.000000e+00
1.210000e+00 0.000000e+00 0.000000e+00
1.220000e+00 0.000000e+00 0.000000e+00
1.230000e+00 0.000000e+00 0.000000e+00
1.240000e+00 0.000000e+00 0.000000e+00
1.250000e+00 0.000000e+00 0.000000e+00
1.260000e+00 0.000000e+00 0.000000e+00
1.270000e+00 0.000000e+00 0.000000e+00
1.280000e+00 0.000000e+00 0.000000e+00
1.290000e+00 0.000000e+00 0.000000e+00
1.300000e+00 0.000000e+00 0.000000e+00
1.310000e+00 0.000000e+00 0.000000e+00
1.320000e+00 0.000000e+00 0.000000e+00
1.330000e+00 0.000000e+00 0.000000e+00
1.340000e+00 0.000000e+00 0.000000e+00
1.350000e+00 0.000000e+00 0.000000e+00
1.360000e+00 0.000000e+00 0.000000e+00
1.370000e+00 0.000000e+00 0.000000e+00
1.380000e+00 0.000000e+00 0.000000e+00
1.390000e+00 0.000000e+00 0.000000e+00
1.400000e+00 0.000000e+00 0.000000e+00
1.410000e+00 0.000000e+00 0.000000e+00
1.420000e+00 0.000000e+00 0.000000e+00
1.430000e+00 0.000000e+00 0.000000e+00
1.440000e+00 0.000000e+00 0.000000e+00
1.450000e+00 0.000000e+00 0.000000e+00
1.460000e+00 0.000000e+00 0.000000e+00
1.470000e+00 0.000000e+00 0.000000e+00
1.480000e+00 0.000000e+00 0.000000e+00
1.490000e+00 0.000000e+00 0.000000e+00
1.500000e+00 0.000000e+00 0.000000e+00
1.510000e+00 0.000000e+00 0.000000e+00
1.520000e+00 0.000000e+00 0.000000e+00
1.530000e+00 0.000000e+00 0.000000e+00
1.540000e+00 0.000000e+00 0.000000e+00
1.550000e+00 0.000000e+00 0.000000e+00
1.560000e+00 0.000000e+00 0.000000e+00
1.570000e+00 0.000000e+00 0.000000e+00
1.580000e+00 0.000000e+00 0.000000e+00
1.590000e+00 0.000000e+00 0.000000e+00
1.600000e+00 0.000000e+00 0.000000e+00
1.610000e+00 0.000000e+00 0.000000e+00
1.620000e+00 0.000000e+00 0.000000e+00
1.630000e+00 0.000000e+00 0.000000e+00
1.640000e+00 0.000000e+00 0.000000e+00
1.650000e+00 0.000000e+00 0.000000e+00
1.660000e+00 0.000000e+00 0.000000e+00
1.670000e+00 0.000000e+00 0.000000e+00
1.680000e+00 0.000000e+00 0.000000e+00
1.690000e+00 0.000000e+00 0.000000e+00
1.700000e+00 0.000000e+00 0.000000e+00
1.710000e+00 0.000000e+00 0.000000e+00
1.720000e+00 0.000000e+00 0.000000e+00
1.730000e+00 0.000000e+00 0.000000e+00
1.740000e+00 0.000000e+00 0.000000e+00
1.750000e+00 0.000000e+00 0.000000e+00
1.760000e+00 0.000000e+00 0.000000e+00
1.770000e+00 0.000000e+00 0.000000e+00
1.780000e+00 0.000000e+00 0.000000e+00
1.790000e+00 0.000000e+00 0.000000e+00
1.800000e+00 0.000000e+00 0.000000e+00
1.810000e+00 0.000000e+00 0.000000e+00
1.820000e+00 0.000000e+00 0.000000e+00
1.830000e+00 0.000000e+00 0.000000e+00
1.840000e+00 0.000000e+00 0.000000e+00
1.850000e+00 0.000000e+00 0.000000e+00
1.860000e+00 0.000000e+00 0.000000e+00
1.870000e+00 0.000000e+00 0.000000e+00
1.880000e+00 0.000000e+00 0.000000e+00
1.890000e+00 0.000000e+00 0.000000e+00
1.900000e+00 0.000000e+00 0.000000e+00
1.910000e+00 0.000000e+00 0.000000e+00
1.920000e+00 0.000000e+00 0.000000e+00
1.930000e+00 0.000000e+00 0.000000e+00
1.940000e+00 0.000000e+00 0.000000e+00
1.950000e+00 0.000000e+00 0.000000e+00
1.960000e+00 0.000000e+00 0.000000e+00
1.970000e+00 0.000000e+00 0.000000e+00
1.980000e+00 0.000000e+00 0.000000e+00
1.990000e+00 0.000000e+00 0.000000e+00

CELLS 200 600
2 0 3 
2 3 4 
2 4 5 
2 5 6 
2 6 7 
2 7 8 
2 8 9 
2 9 10 
2 10 11 
2 11 12 
2 12 13 
2 13 14 
2 14 15 
2 15 16 
2 16 17 
2 17 18 
2 18 19 
2 19 20 
2 20 21 
2 21 22 
2 22 23 
2 23 24 
2 24 25 
2 25 26 
2 26 27 
2 27 28 
2 28 29 
2 29 30 
2 30 31 
2 31 32 
2 32 33 
2 33 34 
2 34 35 
2 35 36 
2 36 37 
2 37 38 
2 38 39 
2 39 40 
2 40 41 
2 41 42 
2 42 43 
2 43 44 
2 44 45 
2 45 46 
2 46 47 
2 47 48 
2 48 49 
2 49 50 
2 50 51 
2 51 52 
2 52 53 
2 53 54 
2 54 55 
2 55 56 
2 56 57 
2 57 58 
2 58 59 
2 59 60 
2 60 61 
2 61 62 
2 62 63 
2 63 64 
2 64 65 
2 65 66 
2 66 67 
2 67 68 
2 68 69 
2 69 70 
2 70 71 
2 71 72 
2 72 73 
2 73 74 
2 74 75 
2 75 76 
2 76 77 
2 77 78 
2 78 79 
2 79 80 
2 80 81 
2 81 82 
2 82 83 
2 83 84 
2 84 85 
2 85 86 
2 86 87 
2 87 88 
2 88 89 
2 89 90 
2 90 91 
2 91 92 
2 92 93 
2 93 94 
2 94 95 
2 95 96 
2 96 97 
2 97 98 
2 98 99 
2 99 100 
2 100 101 
2 101 1 
2 1 102 
2 102 103 
2 103 104 
2 104 105 
2 105 106 
2 106 107 
2 107 108 
2 108 109 
2 109 110 
2 110 111 
2 111 112 
2 112 113 
2 113 114 
2 114 115 
2 115 116 
2 116 117 
2 117 118 
2 118 119 
2 119 120 
2 120 121 
2 121 122 
2 122 123 
2 123 124 
2 124 125 
2 125 126 
2 126 127 
2 127 128 
2 128 129 
2 129 130 
2 130 131 
2 131 132 
2 132 133 
2 133 134 
2 134 135 
2 135 136 
2 136 137 
2 137 138 
2 138 139 
2 139 140 
2 140 141 
2 141 142 
2 142 143 
2 143 144 
2 144 145 
2 145 146 
2 146 147 
2 147 148 
2 148 149 
2 149 150 
2 150 151 
2 151 152 
2 152 153 
2 153 154 
2 154 155 
2 155 156 
2 156 157 
2 157 158 
2 158 159 
2 159 160 
2 160 161 
2 161 162 
2 162 163 
2 163 164 
2 164 165 
2 165 166 
2 166 167 
2 167 168 
2 168 169 
2 169 170 
2 170 171 
2 171 172 
2 172 173 
2 173 174 
2 174 175 
2 175 176 
2 176 177 
2 177 178 
2 178 179 
2 179 180 
2 180 181 
2 181 182 
2 182 183 
2 183 184 
2 184 185 
2 185 186 
2 186 187 
2 187 188 
2 188 189 
2 189 190 
2 190 191 
2 191 192 
2 192 193 
2 193 194 
2 194 195 
2 195 196 
2 196 197 
2 197 198 
2 198 199 
2 199 200 
2 200 2 

CELL_TYPES 200
3
3
3
3
3
3
3
3
3
3
3
3
3
3
3
3
3
3
3
3
3
3
3
3
3
3
3
3
3
3
3
3
3
3
3
3
3
3
3
3
3
3
3
3
3
3
3
3
3
3
3
3
3
3
3
3
3
3
3
3
3
3
3
3
3
3
3
3
3
3
3
3
3
3
3
3
3
3
3
3
3
3
3
3
3
3
3
3
3
3
3
3
3
3
3
3
3
3
3
3
3
3
3
3
3
3
3
3
3
3
3
3
3
3
3
3
3
3
3
3
3
3
3
3
3
3
3
3
3
3
3
3
3
3
3
3
3
3
3
3
3
3
3
3
3
3
3
3
3
3
3
3
3
3
3
3
3
3
3
3
3
3
3
3
3
3
3
3
3
3
3
3
3
3
3
3
3
3
3
3
3
3
3
3
3
3
3
3
3
3
3
3
3
3
3
3
3
3
3
3

POINT_DATA 201

SCALARS node_groups int 1
LOOKUP_TABLE default
1
2
3
1
1
1
1
1
1
1
1
1
1
1
1
1
1
1
1
1
1
1
1
1
1
1
1
1
1
1
1
1
1
1
1
1
1
1
1
1
1
1
1
1
1
1
1
1
1
1
1
1
1
1
1
1
1
1
1
1
1
1
1
1
1
1
1
1
1
1
1
1
1
1
1
1
1
1
1
1
1
1
1
1
1
1
1
1
1
1
1
1
1
1
1
1
1
1
1
1
1
1
2
2
2
2
2
2
2
2
2
2
2
2
2
2
2
2
2
2
2
2
2
2
2
2
2
2
2
2
2
2
2
2
2
2
2
2
2
2
2
2
2
2
2
2
2
2
2
2
2
2
2
2
2
2
2
2
2
2
2
2
2
2
2
2
2
2
2
2
2
2
2
2
2
2
2
2
2
2
2
2
2
2
2
2
2
2
2
2
2
2
2
2
2
2
2
2
2
2
2

SCALARS phil float 1
LOOKUP_TABLE default
0.000000e+00
-3.480891e-02
-5.388790e-02
-3.480891e-04
-6.961783e-04
-1.044267e-03
-1.392357e-03
-1.740446e-03
-2.088535e-03
-2.436624e-03
-2.784713e-03
-3.132802e-03
-3.480891e-03
-3.828981e-03
-4.177070e-03
-4.525159e-03
-4.873248e-03
-5.221337e-03
-5.569426e-03
-5.917515e-03
-6.265604e-03
-6.613694e-03
-6.961783e-03
-7.309872e-03
-7.657961e-03
-8.006050e-03
-8.354139e-03
-8.702228e-03
-9.050318e-03
-9.398407e-03
-9.746496e-03
-1.009458e-02
-1.044267e-02
-1.079076e-02
-1.113885e-02
-1.148694e-02
-1.183503e-02
-1.218312e-02
-1.253121e-02
-1.287930e-02
-1.322739e-02
-1.357548e-02
-1.392357e-02
-1.427165e-02
-1.461974e-02
-1.496783e-02
-1.531592e-02
-1.566401e-02
-1.601210e-02
-1.636019e-02
-1.670828e-02
-1.705637e-02
-1.740446e-02
-1.775255e-02
-1.810064e-02
-1.844872e-02
-1.879681e-02
-1.914490e-02
-1.949299e-02
-1.984108e-02
-2.018917e-02
-2.053726e-02
-2.088535e-02
-2.123344e-02
-2.158153e-02
-2.192962e-02
-2.227770e-02
-2.262579e-02
-2.297388e-02
-2.332197e-02
-2.367006e-02
-2.401815e-02
-2.436624e-02
-2.471433e-02
-2.506242e-02
-2.541051e-02
-2.575860e-02
-2.610669e-02
-2.645477e-02
-2.680286e-02
-2.715095e-02
-2.749904e-02
-2.784713e-02
-2.819522e-02
-2.854331e-02
-2.889140e-02
-2.923949e-02
-2.958758e-02
-2.993567e-02
-3.028375e-02
-3.063184e-02
-3.097993e-02
-3.132802e-02
-3.167611e-02
-3.202420e-02
-3.237229e-02
-3.272038e-02
-3.306847e-02
-3.341656e-02
-3.376465e-02
-3.411274e-02
-3.446082e-02
-3.515694e-02
-3.550459e-02
-3.585146e-02
-3.619705e-02
-3.654074e-02
-3.688124e-02
-3.721823e-02
-3.755252e-02
-3.788438e-02
-3.821389e-02
-3.854105e-02
-3.886583e-02
-3.918817e-02
-3.950798e-02
-3.982519e-02
-4.013972e-02
-4.045147e-02
-4.076037e-02
-4.106635e-02
-4.136934e-02
-4.166928e-02
-4.196613e-02
-4.225984e-02
-4.255038e-02
-4.283773e-02
-4.312187e-02
-4.340269e-02
-4.368008e-02
-4.395391e-02
-4.422407e-02
-4.449043e-02
-4.475289e-02
-4.501132e-02
-4.526563e-02
-4.551571e-02
-4.576145e-02
-4.600277e-02
-4.623957e-02
-4.647176e-02
-4.669925e-02
-4.692197e-02
-4.713982e-02
-4.735274e-02
-4.756064e-02
-4.776345e-02
-4.796112e-02
-4.815360e-02
-4.834085e-02
-4.852283e-02
-4.869952e-02
-4.887350e-02
-4.904711e-02
-4.921993e-02
-4.939148e-02
-4.956113e-02
-4.972758e-02
-4.989052e-02
-5.005077e-02
-5.020858e-02
-5.036405e-02
-5.051716e-02
-5.066790e-02
-5.081619e-02
-5.096196e-02
-5.110513e-02
-5.124561e-02
-5.138332e-02
-5.151817e-02
-5.165011e-02
-5.177905e-02
-5.190495e-02
-5.202775e-02
-5.214741e-02
-5.226391e-02
-5.237722e-02
-5.248731e-02
-5.259409e-02
-5.269743e-02
-5.279722e-02
-5.289333e-02
-5.298565e-02
-5.307407e-02
-5.315846e-02
-5.323872e-02
-5.331475e-02
-5.338645e-02
-5.345373e-02
-5.351648e-02
-5.357462e-02
-5.362807e-02
-5.367675e-02
-5.372056e-02
-5.375943e-02
-5.379328e-02
-5.382205e-02
-5.384568e-02
-5.386412e-02
-5.387732e-02
-5.388525e-02

SCALARS phis float 1
LOOKUP_TABLE default
7.000000e-01
7.601507e-01
7.000000e-01
7.000000e-01
7.000000e-01
7.000000e-01
7.000000e-01
7.000000e-01
7.000000e-01
7.000000e-01
7.000000e-01
7.000000e-01
7.000000e-01
7.000000e-01
7.000000e-01
7.000000e-01
7.000000e-01
7.000000e-01
7.000000e-01
7.000000e-01
7.000000e-01
7.000000e-01
7.000000e-01
7.000000e-01
7.000000e-01
7.000000e-01
7.000000e-01
7.000000e-01
7.000000e-01
7.000000e-01
7.000000e-01
7.000000e-01
7.000000e-01
7.000000e-01
7.000000e-01
7.000000e-01
7.000000e-01
7.000000e-01
7.000000e-01
7.000000e-01
7.000000e-01
7.000000e-01
7.000000e-01
7.000000e-01
7.000000e-01
7.000000e-01
7.000000e-01
7.000000e-01
7.000000e-01
7.000000e-01
7.000000e-01
7.000000e-01
7.000000e-01
7.000000e-01
7.000000e-01
7.000000e-01
7.000000e-01
7.000000e-01
7.000000e-01
7.000000e-01
7.000000e-01
7.000000e-01
7.000000e-01
7.000000e-01
7.000000e-01
7.000000e-01
7.000000e-01
7.000000e-01
7.000000e-01
7.000000e-01
7.000000e-01
7.000000e-01
7.000000e-01
7.000000e-01
7.000000e-01
7.000000e-01
7.000000e-01
7.000000e-01
7.000000e-01
7.000000e-01
7.000000e-01
7.000000e-01
7.000000e-01
7.000000e-01
7.000000e-01
7.000000e-01
7.000000e-01
7.000000e-01
7.000000e-01
7.000000e-01
7.000000e-01
7.000000e-01
7.000000e-01
7.000000e-01
7.000000e-01
7.000000e-01
7.000000e-01
7.000000e-01
7.000000e-01
7.000000e-01
7.000000e-01
7.000000e-01
7.601486e-01
7.601295e-01
7.600913e-01
7.600341e-01
7.599581e-01
7.598635e-01
7.597505e-01
7.596194e-01
7.594704e-01
7.593038e-01
7.591200e-01
7.589192e-01
7.587019e-01
7.584683e-01
7.582188e-01
7.579540e-01
7.576742e-01
7.573800e-01
7.570719e-01
7.567505e-01
7.564164e-01
7.560702e-01
7.557126e-01
7.553442e-01
7.549657e-01
7.545776e-01
7.541800e-01
7.537728e-01
7.533563e-01
7.529305e-01
7.524957e-01
7.520521e-01
7.515999e-01
7.511395e-01
7.506711e-01
7.501949e-01
7.497115e-01
7.492210e-01
7.487239e-01
7.482205e-01
7.477113e-01
7.471967e-01
7.466773e-01
7.461536e-01
7.456261e-01
7.450956e-01
7.445625e-01
7.440276e-01
7.434915e-01
7.429549e-01
7.424163e-01
7.418605e-01
7.412856e-01
7.406918e-01
7.400791e-01
7.394479e-01
7.387982e-01
7.381305e-01
7.374448e-01
7.367416e-01
7.360211e-01
7.352837e-01
7.345297e-01
7.337595e-01
7.329734e-01
7.321719e-01
7.313554e-01
7.305246e-01
7.296798e-01
7.288218e-01
7.279510e-01
7.270682e-01
7.261739e-01
7.252689e-01
7.243538e-01
7.234290e-01
7.224947e-01
7.215509e-01
7.205977e-01
7.196353e-01
7.186639e-01
7.176836e-01
7.166948e-01
7.156977e-01
7.146926e-01
7.136798e-01
7.126597e-01
7.116326e-01
7.105989e-01
7.095588e-01
7.085130e-01
7.074617e-01
7.064057e-01
7.053453e-01
7.042812e-01
7.032140e-01
7.021443e-01
7.010727e-01
7.000000e-01

SCALARS il float 1
LOOKUP_TABLE default
-3.480891e-02
-3.480874e-02
-1.529394e-04
-3.480891e-02
-3.480891e-02
-3.480891e-02
-3.480891e-02
-3.480891e-02
-3.480891e-02
-3.480891e-02
-3.480891e-02
-3.480891e-02
-3.480891e-02
-3.480891e-02
-3.480891e-02
-3.480891e-02
-3.480891e-02
-3.480891e-02
-3.480891e-02
-3.480891e-02
-3.480891e-02
-3.480891e-02
-3.480891e-02
-3.480891e-02
-3.480891e-02
-3.480891e-02
-3.480891e-02
-3.480891e-02
-3.480891e-02
-3.480891e-02
-3.480891e-02
-3.480891e-02
-3.480891e-02
-3.480891e-02
-3.480891e-02
-3.480891e-02
-3.480891e-02
-3.480891e-02
-3.480891e-02
-3.480891e-02
-3.480891e-02
-3.480891e-02
-3.480891e-02
-3.480891e-02
-3.480891e-02
-3.480891e-02
-3.480891e-02
-3.480891e-02
-3.480891e-02
-3.480891e-02
-3.480891e-02
-3.480891e-02
-3.480891e-02
-3.480891e-02
-3.480891e-02
-3.480891e-02
-3.480891e-02
-3.480891e-02
-3.480891e-02
-3.480891e-02
-3.480891e-02
-3.480891e-02
-3.480891e-02
-3.480891e-02
-3.480891e-02
-3.480891e-02
-3.480891e-02
-3.480891e-02
-3.480891e-02
-3.480891e-02
-3.480891e-02
-3.480891e-02
-3.480891e-02
-3.480891e-02
-3.480891e-02
-3.480891e-02
-3.480891e-02
-3.480891e-02
-3.480891e-02
-3.480891e-02
-3.480891e-02
-3.480891e-02
-3.480891e-02
-3.480891e-02
-3.480891e-02
-3.480891e-02
-3.480891e-02
-3.480891e-02
-3.480891e-02
-3.480891e-02
-3.480891e-02
-3.480891e-02
-3.480891e-02
-3.480891e-02
-3.480891e-02
-3.480891e-02
-3.480891e-02
-3.480891e-02
-3.480891e-02
-3.480892e-02
-3.480890e-02
-3.480896e-02
-3.479010e-02
-3.473363e-02
-3.463100e-02
-3.448190e-02
-3.422709e-02
-3.386633e-02
-3.355263e-02
-3.330659e-02
-3.306722e-02
-3.283372e-02
-3.259795e-02
-3.235720e-02
-3.210909e-02
-3.185277e-02
-3.158815e-02
-3.131522e-02
-3.103411e-02
-3.074521e-02
-3.044928e-02
-3.014727e-02
-2.984006e-02
-2.952840e-02
-2.921309e-02
-2.889511e-02
-2.857557e-02
-2.824981e-02
-2.791236e-02
-2.756292e-02
-2.720148e-02
-2.682808e-02
-2.644295e-02
-2.604645e-02
-2.563900e-02
-2.522099e-02
-2.479274e-02
-2.435464e-02
-2.390714e-02
-2.345071e-02
-2.298566e-02
-2.251204e-02
-2.203000e-02
-2.153977e-02
-2.104175e-02
-2.053668e-02
-2.002516e-02
-1.950883e-02
-1.898551e-02
-1.846725e-02
-1.791339e-02
-1.748073e-02
-1.736513e-02
-1.733463e-02
-1.722505e-02
-1.707781e-02
-1.682250e-02
-1.646188e-02
-1.614814e-02
-1.590211e-02
-1.566274e-02
-1.542924e-02
-1.519347e-02
-1.495272e-02
-1.470460e-02
-1.444828e-02
-1.418367e-02
-1.391074e-02
-1.362962e-02
-1.334074e-02
-1.304481e-02
-1.274280e-02
-1.243560e-02
-1.212395e-02
-1.180864e-02
-1.149065e-02
-1.117112e-02
-1.084537e-02
-1.050791e-02
-1.015848e-02
-9.797041e-03
-9.423645e-03
-9.038511e-03
-8.642011e-03
-8.234569e-03
-7.816551e-03
-7.388301e-03
-6.950202e-03
-6.502702e-03
-6.046281e-03
-5.581223e-03
-5.107612e-03
-4.625566e-03
-4.135336e-03
-3.637315e-03
-3.132277e-03
-2.620623e-03
-2.104796e-03
-1.579608e-03
-1.068321e-03
-4.884268e-04

SCALARS is float 1
LOOKUP_TABLE default
-2.874972e-01
-1.481072e-03
-2.874972e-01
-2.874972e-01
-2.874972e-01
-2.874972e-01
-2.874972e-01
-2.874972e-01
-2.874972e-01
-2.874972e-01
-2.874972e-01
-2.874972e-01
-2.874972e-01
-2.874972e-01
-2.874972e-01
-2.874972e-01
-2.874972e-01
-2.874972e-01
-2.874972e-01
-2.874972e-01
-2.874972e-01
-2.874972e-01
-2.874972e-01
-2.874972e-01
-2.874972e-01
-2.874972e-01
-2.874972e-01
-2.874972e-01
-2.874972e-01
-2.874972e-01
-2.874972e-01
-2.874972e-01
-2.874972e-01
-2.874972e-01
-2.874972e-01
-2.874972e-01
-2.874972e-01
-2.874972e-01
-2.874972e-01
-2.874972e-01
-2.874972e-01
-2.874972e-01
-2.874972e-01
-2.874972e-01
-2.874972e-01
-2.874972e-01
-2.874972e-01
-2.874972e-01
-2.874972e-01
-2.874972e-01
-2.874972e-01
-2.874972e-01
-2.874972e-01
-2.874972e-01
-2.874972e-01
-2.874972e-01
-2.874972e-01
-2.874972e-01
-2.874972e-01
-2.874972e-01
-2.874972e-01
-2.874972e-01
-2.874972e-01
-2.874972e-01
-2.874972e-01
-2.874972e-01
-2.874972e-01
-2.874972e-01
-2.874972e-01
-2.874972e-01
-2.874972e-01
-2.874972e-01
-2.874972e-01
-2.874972e-01
-2.874972e-01
-2.874972e-01
-2.874972e-01
-2.874972e-01
-2.874972e-01
-2.874972e-01
-2.874972e-01
-2.874972e-01
-2.874972e-01
-2.874972e-01
-2.874972e-01
-2.874972e-01
-2.874972e-01
-2.874972e-01
-2.874972e-01
-2.874972e-01
-2.874972e-01
-2.874972e-01
-2.874972e-01
-2.874972e-01
-2.874972e-01
-2.874972e-01
-2.874972e-01
-2.874972e-01
-2.874972e-01
-2.874972e-01
-2.874972e-01
-2.874972e-01
9.033865e-03
2.883818e-02
4.768024e-02
6.662260e-02
8.532843e-02
1.038419e-01
1.221124e-01
1.401209e-01
1.578428e-01
1.752585e-01
1.923508e-01
2.091077e-01
2.255225e-01
2.415732e-01
2.572158e-01
2.724047e-01
2.870982e-01
3.012588e-01
3.148548e-01
3.278595e-01
3.402498e-01
3.520032e-01
3.631056e-01
3.735264e-01
3.833271e-01
3.928847e-01
4.024234e-01
4.118662e-01
4.211772e-01
4.303139e-01
4.392415e-01
4.479307e-01
4.563566e-01
4.644963e-01
4.723296e-01
4.798396e-01
4.870142e-01
4.938467e-01
5.003150e-01
5.063753e-01
5.119819e-01
5.170931e-01
5.216715e-01
5.256848e-01
5.291085e-01
5.319117e-01
5.341009e-01
5.355534e-01
5.366437e-01
5.359224e-01
5.454804e-01
5.655412e-01
5.843145e-01
6.032753e-01
6.219762e-01
6.404910e-01
6.587612e-01
6.767697e-01
6.944916e-01
7.119073e-01
7.289996e-01
7.457565e-01
7.621713e-01
7.782220e-01
7.938646e-01
8.090534e-01
8.237470e-01
8.379076e-01
8.515035e-01
8.645082e-01
8.768986e-01
8.886520e-01
8.997543e-01
9.101752e-01
9.199758e-01
9.295335e-01
9.390722e-01
9.485150e-01
9.578260e-01
9.669627e-01
9.758903e-01
9.845795e-01
9.930053e-01
1.001145e+00
1.008978e+00
1.016488e+00
1.023663e+00
1.030496e+00
1.036963e+00
1.043028e+00
1.048617e+00
1.053791e+00
1.058136e+00
1.063022e+00
1.063189e+00
1.078147e+00
1.034973e+00
1.205721e+00
5.749944e-01

CELL_DATA 200
SCALARS mat_id int 1
LOOKUP_TABLE default
1
1
1
1
1
1
1
1
1
1
1
1
1
1
1
1
1
1
1
1
1
1
1
1
1
1
1
1
1
1
1
1
1
1
1
1
1
1
1
1
1
1
1
1
1
1
1
1
1
1
1
1
1
1
1
1
1
1
1
1
1
1
1
1
1
1
1
1
1
1
1
1
1
1
1
1
1
1
1
1
1
1
1
1
1
1
1
1
1
1
1
1
1
1
1
1
1
1
1
1
2
2
2
2
2
2
2
2
2
2
2
2
2
2
2
2
2
2
2
2
2
2
2
2
2
2
2
2
2
2
2
2
2
2
2
2
2
2
2
2
2
2
2
2
2
2
2
2
2
2
2
2
2
2
2
2
2
2
2
2
2
2
2
2
2
2
2
2
2
2
2
2
2
2
2
2
2
2
2
2
2
2
2
2
2
2
2
2
2
2
2
2
2
2
2
2
2
2
2
2
