# vtk DataFile Version 2.0
step 18 time 7.500000e-02 normalized time 7.500000e-01, generated by simple.py
ASCII
DATASET UNSTRUCTURED_GRID

POINTS 201 float
0.000000e+00 0.000000e+00 0.000000e+00
1.000000e+00 0.000000e+00 0.000000e+00
2.000000e+00 0.000000e+00 0.000000e+00
1.000000e-02 0.000000e+00 0.000000e+00
2.000000e-02 0.000000e+00 0.000000e+00
3.000000e-02 0.000000e+00 0.000000e+00
4.000000e-02 0.000000e+00 0.000000e+00
5.000000e-02 0.000000e+00 0.000000e+00
6.000000e-02 0.000000e+00 0.000000e+00
7.000000e-02 0.000000e+00 0.000000e+00
8.000000e-02 0.000000e+00 0.000000e+00
9.000000e-02 0.000000e+00 0.000000e+00
1.000000e-01 0.000000e+00 0.000000e+00
1.100000e-01 0.000000e+00 0.000000e+00
1.200000e-01 0.000000e+00 0.000000e+00
1.300000e-01 0.000000e+00 0.000000e+00
1.400000e-01 0.000000e+00 0.000000e+00
1.500000e-01 0.000000e+00 0.000000e+00
1.600000e-01 0.000000e+00 0.000000e+00
1.700000e-01 0.000000e+00 0.000000e+00
1.800000e-01 0.000000e+00 0.000000e+00
1.900000e-01 0.000000e+00 0.000000e+00
2.000000e-01 0.000000e+00 0.000000e+00
2.100000e-01 0.000000e+00 0.000000e+00
2.200000e-01 0.000000e+00 0.000000e+00
2.300000e-01 0.000000e+00 0.000000e+00
2.400000e-01 0.000000e+00 0.000000e+00
2.500000e-01 0.000000e+00 0.000000e+00
2.600000e-01 0.000000e+00 0.000000e+00
2.700000e-01 0.000000e+00 0.000000e+00
2.800000e-01 0.000000e+00 0.000000e+00
2.900000e-01 0.000000e+00 0.000000e+00
3.000000e-01 0.000000e+00 0.000000e+00
3.100000e-01 0.000000e+00 0.000000e+00
3.200000e-01 0.000000e+00 0.000000e+00
3.300000e-01 0.000000e+00 0.000000e+00
3.400000e-01 0.000000e+00 0.000000e+00
3.500000e-01 0.000000e+00 0.000000e+00
3.600000e-01 0.000000e+00 0.000000e+00
3.700000e-01 0.000000e+00 0.000000e+00
3.800000e-01 0.000000e+00 0.000000e+00
3.900000e-01 0.000000e+00 0.000000e+00
4.000000e-01 0.000000e+00 0.000000e+00
4.100000e-01 0.000000e+00 0.000000e+00
4.200000e-01 0.000000e+00 0.000000e+00
4.300000e-01 0.000000e+00 0.000000e+00
4.400000e-01 0.000000e+00 0.000000e+00
4.500000e-01 0.000000e+00 0.000000e+00
4.600000e-01 0.000000e+00 0.000000e+00
4.700000e-01 0.000000e+00 0.000000e+00
4.800000e-01 0.000000e+00 0.000000e+00
4.900000e-01 0.000000e+00 0.000000e+00
5.000000e-01 0.000000e+00 0.000000e+00
5.100000e-01 0.000000e+00 0.000000e+00
5.200000e-01 0.000000e+00 0.000000e+00
5.300000e-01 0.000000e+00 0.000000e+00
5.400000e-01 0.000000e+00 0.000000e+00
5.500000e-01 0.000000e+00 0.000000e+00
5.600000e-01 0.000000e+00 0.000000e+00
5.700000e-01 0.000000e+00 0.000000e+00
5.800000e-01 0.000000e+00 0.000000e+00
5.900000e-01 0.000000e+00 0.000000e+00
6.000000e-01 0.000000e+00 0.000000e+00
6.100000e-01 0.000000e+00 0.000000e+00
6.200000e-01 0.000000e+00 0.000000e+00
6.300000e-01 0.000000e+00 0.000000e+00
6.400000e-01 0.000000e+00 0.000000e+00
6.500000e-01 0.000000e+00 0.000000e+00
6.600000e-01 0.000000e+00 0.000000e+00
6.700000e-01 0.000000e+00 0.000000e+00
6.800000e-01 0.000000e+00 0.000000e+00
6.900000e-01 0.000000e+00 0.000000e+00
7.000000e-01 0.000000e+00 0.000000e+00
7.100000e-01 0.000000e+00 0.000000e+00
7.200000e-01 0.000000e+00 0.000000e+00
7.300000e-01 0.000000e+00 0.000000e+00
7.400000e-01 0.000000e+00 0.000000e+00
7.500000e-01 0.000000e+00 0.000000e+00
7.600000e-01 0.000000e+00 0.000000e+00
7.700000e-01 0.000000e+00 0.000000e+00
7.800000e-01 0.000000e+00 0.000000e+00
7.900000e-01 0.000000e+00 0.000000e+00
8.000000e-01 0.000000e+00 0.000000e+00
8.100000e-01 0.000000e+00 0.000000e+00
8.200000e-01 0.000000e+00 0.000000e+00
8.300000e-01 0.000000e+00 0.000000e+00
8.400000e-01 0.000000e+00 0.000000e+00
8.500000e-01 0.000000e+00 0.000000e+00
8.600000e-01 0.000000e+00 0.000000e+00
8.700000e-01 0.000000e+00 0.000000e+00
8.800000e-01 0.000000e+00 0.000000e+00
8.900000e-01 0.000000e+00 0.000000e+00
9.000000e-01 0.000000e+00 0.000000e+00
9.100000e-01 0.000000e+00 0.000000e+00
9.200000e-01 0.000000e+00 0.000000e+00
9.300000e-01 0.000000e+00 0.000000e+00
9.400000e-01 0.000000e+00 0.000000e+00
9.500000e-01 0.000000e+00 0.000000e+00
9.600000e-01 0.000000e+00 0.000000e+00
9.700000e-01 0.000000e+00 0.000000e+00
9.800000e-01 0.000000e+00 0.000000e+00
9.900000e-01 0.000000e+00 0.000000e+00
1.010000e+00 0.000000e+00 0.000000e+00
1.020000e+00 0.000000e+00 0.000000e+00
1.030000e+00 0.000000e+00 0.000000e+00
1.040000e+00 0.000000e+00 0.000000e+00
1.050000e+00 0.000000e+00 0.000000e+00
1.060000e+00 0.000000e+00 0.000000e+00
1.070000e+00 0.000000e+00 0.000000e+00
1.080000e+00 0.000000e+00 0.000000e+00
1.090000e+00 0.000000e+00 0.000000e+00
1.100000e+00 0.000000e+00 0.000000e+00
1.110000e+00 0.000000e+00 0.000000e+00
1.120000e+00 0.000000e+00 0.000000e+00
1.130000e+00 0.000000e+00 0.000000e+00
1.140000e+00 0.000000e+00 0.000000e+00
1.150000e+00 0.000000e+00 0.000000e+00
1.160000e+00 0.000000e+00 0.000000e+00
1.170000e+00 0.000000e+00 0.000000e+00
1.180000e+00 0.000000e+00 0.000000e+00
1.190000e+00 0.000000e+00 0.000000e+00
1.200000e+00 0.000000e+00 0.000000e+00
1.210000e+00 0.000000e+00 0.000000e+00
1.220000e+00 0.000000e+00 0.000000e+00
1.230000e+00 0.000000e+00 0.000000e+00
1.240000e+00 0.000000e+00 0.000000e+00
1.250000e+00 0.000000e+00 0.000000e+00
1.260000e+00 0.000000e+00 0.000000e+00
1.270000e+00 0.000000e+00 0.000000e+00
1.280000e+00 0.000000e+00 0.000000e+00
1.290000e+00 0.000000e+00 0.000000e+00
1.300000e+00 0.000000e+00 0.000000e+00
1.310000e+00 0.000000e+00 0.000000e+00
1.320000e+00 0.000000e+00 0.000000e+00
1.330000e+00 0.000000e+00 0.000000e+00
1.340000e+00 0.000000e+00 0.000000e+00
1.350000e+00 0.000000e+00 0.000000e+00
1.360000e+00 0.000000e+00 0.000000e+00
1.370000e+00 0.000000e+00 0.000000e+00
1.380000e+00 0.000000e+00 0.000000e+00
1.390000e+00 0.000000e+00 0.000000e+00
1.400000e+00 0.000000e+00 0.000000e+00
1.410000e+00 0.000000e+00 0.000000e+00
1.420000e+00 0.000000e+00 0.000000e+00
1.430000e+00 0.000000e+00 0.000000e+00
1.440000e+00 0.000000e+00 0.000000e+00
1.450000e+00 0.000000e+00 0.000000e+00
1.460000e+00 0.000000e+00 0.000000e+00
1.470000e+00 0.000000e+00 0.000000e+00
1.480000e+00 0.000000e+00 0.000000e+00
1.490000e+00 0.000000e+00 0.000000e+00
1.500000e+00 0.000000e+00 0.000000e+00
1.510000e+00 0.000000e+00 0.000000e+00
1.520000e+00 0.000000e+00 0.000000e+00
1.530000e+00 0.000000e+00 0.000000e+00
1.540000e+00 0.000000e+00 0.000000e+00
1.550000e+00 0.000000e+00 0.000000e+00
1.560000e+00 0.000000e+00 0.000000e+00
1.570000e+00 0.000000e+00 0.000000e+00
1.580000e+00 0.000000e+00 0.000000e+00
1.590000e+00 0.000000e+00 0.000000e+00
1.600000e+00 0.000000e+00 0.000000e+00
1.610000e+00 0.000000e+00 0.000000e+00
1.620000e+00 0.000000e+00 0.000000e+00
1.630000e+00 0.000000e+00 0.000000e+00
1.640000e+00 0.000000e+00 0.000000e+00
1.650000e+00 0.000000e+00 0.000000e+00
1.660000e+00 0.000000e+00 0.000000e+00
1.670000e+00 0.000000e+00 0.000000e+00
1.680000e+00 0.000000e+00 0.000000e+00
1.690000e+00 0.000000e+00 0.000000e+00
1.700000e+00 0.000000e+00 0.000000e+00
1.710000e+00 0.000000e+00 0.000000e+00
1.720000e+00 0.000000e+00 0.000000e+00
1.730000e+00 0.000000e+00 0.000000e+00
1.740000e+00 0.000000e+00 0.000000e+00
1.750000e+00 0.000000e+00 0.000000e+00
1.760000e+00 0.000000e+00 0.000000e+00
1.770000e+00 0.000000e+00 0.000000e+00
1.780000e+00 0.000000e+00 0.000000e+00
1.790000e+00 0.000000e+00 0.000000e+00
1.800000e+00 0.000000e+00 0.000000e+00
1.810000e+00 0.000000e+00 0.000000e+00
1.820000e+00 0.000000e+00 0.000000e+00
1.830000e+00 0.000000e+00 0.000000e+00
1.840000e+00 0.000000e+00 0.000000e+00
1.850000e+00 0.000000e+00 0.000000e+00
1.860000e+00 0.000000e+00 0.000000e+00
1.870000e+00 0.000000e+00 0.000000e+00
1.880000e+00 0.000000e+00 0.000000e+00
1.890000e+00 0.000000e+00 0.000000e+00
1.900000e+00 0.000000e+00 0.000000e+00
1.910000e+00 0.000000e+00 0.000000e+00
1.920000e+00 0.000000e+00 0.000000e+00
1.930000e+00 0.000000e+00 0.000000e+00
1.940000e+00 0.000000e+00 0.000000e+00
1.950000e+00 0.000000e+00 0.000000e+00
1.960000e+00 0.000000e+00 0.000000e+00
1.970000e+00 0.000000e+00 0.000000e+00
1.980000e+00 0.000000e+00 0.000000e+00
1.990000e+00 0.000000e+00 0.000000e+00

CELLS 200 600
2 0 3 
2 3 4 
2 4 5 
2 5 6 
2 6 7 
2 7 8 
2 8 9 
2 9 10 
2 10 11 
2 11 12 
2 12 13 
2 13 14 
2 14 15 
2 15 16 
2 16 17 
2 17 18 
2 18 19 
2 19 20 
2 20 21 
2 21 22 
2 22 23 
2 23 24 
2 24 25 
2 25 26 
2 26 27 
2 27 28 
2 28 29 
2 29 30 
2 30 31 
2 31 32 
2 32 33 
2 33 34 
2 34 35 
2 35 36 
2 36 37 
2 37 38 
2 38 39 
2 39 40 
2 40 41 
2 41 42 
2 42 43 
2 43 44 
2 44 45 
2 45 46 
2 46 47 
2 47 48 
2 48 49 
2 49 50 
2 50 51 
2 51 52 
2 52 53 
2 53 54 
2 54 55 
2 55 56 
2 56 57 
2 57 58 
2 58 59 
2 59 60 
2 60 61 
2 61 62 
2 62 63 
2 63 64 
2 64 65 
2 65 66 
2 66 67 
2 67 68 
2 68 69 
2 69 70 
2 70 71 
2 71 72 
2 72 73 
2 73 74 
2 74 75 
2 75 76 
2 76 77 
2 77 78 
2 78 79 
2 79 80 
2 80 81 
2 81 82 
2 82 83 
2 83 84 
2 84 85 
2 85 86 
2 86 87 
2 87 88 
2 88 89 
2 89 90 
2 90 91 
2 91 92 
2 92 93 
2 93 94 
2 94 95 
2 95 96 
2 96 97 
2 97 98 
2 98 99 
2 99 100 
2 100 101 
2 101 1 
2 1 102 
2 102 103 
2 103 104 
2 104 105 
2 105 106 
2 106 107 
2 107 108 
2 108 109 
2 109 110 
2 110 111 
2 111 112 
2 112 113 
2 113 114 
2 114 115 
2 115 116 
2 116 117 
2 117 118 
2 118 119 
2 119 120 
2 120 121 
2 121 122 
2 122 123 
2 123 124 
2 124 125 
2 125 126 
2 126 127 
2 127 128 
2 128 129 
2 129 130 
2 130 131 
2 131 132 
2 132 133 
2 133 134 
2 134 135 
2 135 136 
2 136 137 
2 137 138 
2 138 139 
2 139 140 
2 140 141 
2 141 142 
2 142 143 
2 143 144 
2 144 145 
2 145 146 
2 146 147 
2 147 148 
2 148 149 
2 149 150 
2 150 151 
2 151 152 
2 152 153 
2 153 154 
2 154 155 
2 155 156 
2 156 157 
2 157 158 
2 158 159 
2 159 160 
2 160 161 
2 161 162 
2 162 163 
2 163 164 
2 164 165 
2 165 166 
2 166 167 
2 167 168 
2 168 169 
2 169 170 
2 170 171 
2 171 172 
2 172 173 
2 173 174 
2 174 175 
2 175 176 
2 176 177 
2 177 178 
2 178 179 
2 179 180 
2 180 181 
2 181 182 
2 182 183 
2 183 184 
2 184 185 
2 185 186 
2 186 187 
2 187 188 
2 188 189 
2 189 190 
2 190 191 
2 191 192 
2 192 193 
2 193 194 
2 194 195 
2 195 196 
2 196 197 
2 197 198 
2 198 199 
2 199 200 
2 200 2 

CELL_TYPES 200
3
3
3
3
3
3
3
3
3
3
3
3
3
3
3
3
3
3
3
3
3
3
3
3
3
3
3
3
3
3
3
3
3
3
3
3
3
3
3
3
3
3
3
3
3
3
3
3
3
3
3
3
3
3
3
3
3
3
3
3
3
3
3
3
3
3
3
3
3
3
3
3
3
3
3
3
3
3
3
3
3
3
3
3
3
3
3
3
3
3
3
3
3
3
3
3
3
3
3
3
3
3
3
3
3
3
3
3
3
3
3
3
3
3
3
3
3
3
3
3
3
3
3
3
3
3
3
3
3
3
3
3
3
3
3
3
3
3
3
3
3
3
3
3
3
3
3
3
3
3
3
3
3
3
3
3
3
3
3
3
3
3
3
3
3
3
3
3
3
3
3
3
3
3
3
3
3
3
3
3
3
3
3
3
3
3
3
3
3
3
3
3
3
3
3
3
3
3
3
3

POINT_DATA 201

SCALARS node_groups int 1
LOOKUP_TABLE default
1
2
3
1
1
1
1
1
1
1
1
1
1
1
1
1
1
1
1
1
1
1
1
1
1
1
1
1
1
1
1
1
1
1
1
1
1
1
1
1
1
1
1
1
1
1
1
1
1
1
1
1
1
1
1
1
1
1
1
1
1
1
1
1
1
1
1
1
1
1
1
1
1
1
1
1
1
1
1
1
1
1
1
1
1
1
1
1
1
1
1
1
1
1
1
1
1
1
1
1
1
1
2
2
2
2
2
2
2
2
2
2
2
2
2
2
2
2
2
2
2
2
2
2
2
2
2
2
2
2
2
2
2
2
2
2
2
2
2
2
2
2
2
2
2
2
2
2
2
2
2
2
2
2
2
2
2
2
2
2
2
2
2
2
2
2
2
2
2
2
2
2
2
2
2
2
2
2
2
2
2
2
2
2
2
2
2
2
2
2
2
2
2
2
2
2
2
2
2
2
2

SCALARS phil float 1
LOOKUP_TABLE default
0.000000e+00
-8.133240e-02
-1.285533e-01
-8.133240e-04
-1.626648e-03
-2.439972e-03
-3.253296e-03
-4.066620e-03
-4.879944e-03
-5.693268e-03
-6.506592e-03
-7.319916e-03
-8.133240e-03
-8.946565e-03
-9.759889e-03
-1.057321e-02
-1.138654e-02
-1.219986e-02
-1.301318e-02
-1.382651e-02
-1.463983e-02
-1.545316e-02
-1.626648e-02
-1.707980e-02
-1.789313e-02
-1.870645e-02
-1.951978e-02
-2.033310e-02
-2.114643e-02
-2.195975e-02
-2.277307e-02
-2.358640e-02
-2.439972e-02
-2.521305e-02
-2.602637e-02
-2.683969e-02
-2.765302e-02
-2.846634e-02
-2.927967e-02
-3.009299e-02
-3.090631e-02
-3.171964e-02
-3.253296e-02
-3.334629e-02
-3.415961e-02
-3.497293e-02
-3.578626e-02
-3.659958e-02
-3.741291e-02
-3.822623e-02
-3.903955e-02
-3.985288e-02
-4.066620e-02
-4.147953e-02
-4.229285e-02
-4.310617e-02
-4.391950e-02
-4.473282e-02
-4.554615e-02
-4.635947e-02
-4.717279e-02
-4.798612e-02
-4.879944e-02
-4.961277e-02
-5.042609e-02
-5.123941e-02
-5.205274e-02
-5.286606e-02
-5.367939e-02
-5.449271e-02
-5.530604e-02
-5.611936e-02
-5.693268e-02
-5.774601e-02
-5.855933e-02
-5.937266e-02
-6.018598e-02
-6.099930e-02
-6.181263e-02
-6.262595e-02
-6.343928e-02
-6.425260e-02
-6.506592e-02
-6.587925e-02
-6.669257e-02
-6.750590e-02
-6.831922e-02
-6.913254e-02
-6.994587e-02
-7.075919e-02
-7.157252e-02
-7.238584e-02
-7.319916e-02
-7.401249e-02
-7.482581e-02
-7.563914e-02
-7.645246e-02
-7.726578e-02
-7.807911e-02
-7.889243e-02
-7.970576e-02
-8.051908e-02
-8.214569e-02
-8.295871e-02
-8.377118e-02
-8.458270e-02
-8.539289e-02
-8.620132e-02
-8.700756e-02
-8.781119e-02
-8.861179e-02
-8.940896e-02
-9.020232e-02
-9.099151e-02
-9.177622e-02
-9.255616e-02
-9.333102e-02
-9.410049e-02
-9.486421e-02
-9.562184e-02
-9.637303e-02
-9.711747e-02
-9.785484e-02
-9.858487e-02
-9.930733e-02
-1.000221e-01
-1.007290e-01
-1.014279e-01
-1.021187e-01
-1.028010e-01
-1.034745e-01
-1.041388e-01
-1.047936e-01
-1.054385e-01
-1.060731e-01
-1.066971e-01
-1.073101e-01
-1.079119e-01
-1.085021e-01
-1.090805e-01
-1.096467e-01
-1.102006e-01
-1.107419e-01
-1.112702e-01
-1.117852e-01
-1.122867e-01
-1.127743e-01
-1.132477e-01
-1.137068e-01
-1.141512e-01
-1.145809e-01
-1.149957e-01
-1.154029e-01
-1.158100e-01
-1.162164e-01
-1.166220e-01
-1.170263e-01
-1.174289e-01
-1.178295e-01
-1.182277e-01
-1.186232e-01
-1.190154e-01
-1.194041e-01
-1.197890e-01
-1.201697e-01
-1.205460e-01
-1.209176e-01
-1.212841e-01
-1.216452e-01
-1.220007e-01
-1.223500e-01
-1.226930e-01
-1.230293e-01
-1.233586e-01
-1.236807e-01
-1.239954e-01
-1.243025e-01
-1.246020e-01
-1.248935e-01
-1.251767e-01
-1.254512e-01
-1.257168e-01
-1.259728e-01
-1.262191e-01
-1.264551e-01
-1.266804e-01
-1.268948e-01
-1.270977e-01
-1.272890e-01
-1.274681e-01
-1.276349e-01
-1.277890e-01
-1.279300e-01
-1.280576e-01
-1.281715e-01
-1.282712e-01
-1.283564e-01
-1.284267e-01
-1.284818e-01
-1.285214e-01
-1.285453e-01

SCALARS phis float 1
LOOKUP_TABLE default
7.000000e-01
7.503545e-01
7.000000e-01
7.000000e-01
7.000000e-01
7.000000e-01
7.000000e-01
7.000000e-01
7.000000e-01
7.000000e-01
7.000000e-01
7.000000e-01
7.000000e-01
7.000000e-01
7.000000e-01
7.000000e-01
7.000000e-01
7.000000e-01
7.000000e-01
7.000000e-01
7.000000e-01
7.000000e-01
7.000000e-01
7.000000e-01
7.000000e-01
7.000000e-01
7.000000e-01
7.000000e-01
7.000000e-01
7.000000e-01
7.000000e-01
7.000000e-01
7.000000e-01
7.000000e-01
7.000000e-01
7.000000e-01
7.000000e-01
7.000000e-01
7.000000e-01
7.000000e-01
7.000000e-01
7.000000e-01
7.000000e-01
7.000000e-01
7.000000e-01
7.000000e-01
7.000000e-01
7.000000e-01
7.000000e-01
7.000000e-01
7.000000e-01
7.000000e-01
7.000000e-01
7.000000e-01
7.000000e-01
7.000000e-01
7.000000e-01
7.000000e-01
7.000000e-01
7.000000e-01
7.000000e-01
7.000000e-01
7.000000e-01
7.000000e-01
7.000000e-01
7.000000e-01
7.000000e-01
7.000000e-01
7.000000e-01
7.000000e-01
7.000000e-01
7.000000e-01
7.000000e-01
7.000000e-01
7.000000e-01
7.000000e-01
7.000000e-01
7.000000e-01
7.000000e-01
7.000000e-01
7.000000e-01
7.000000e-01
7.000000e-01
7.000000e-01
7.000000e-01
7.000000e-01
7.000000e-01
7.000000e-01
7.000000e-01
7.000000e-01
7.000000e-01
7.000000e-01
7.000000e-01
7.000000e-01
7.000000e-01
7.000000e-01
7.000000e-01
7.000000e-01
7.000000e-01
7.000000e-01
7.000000e-01
7.000000e-01
7.503528e-01
7.503368e-01
7.503048e-01
7.502570e-01
7.501934e-01
7.501143e-01
7.500198e-01
7.499101e-01
7.497854e-01
7.496460e-01
7.494922e-01
7.493242e-01
7.491424e-01
7.489469e-01
7.487382e-01
7.485165e-01
7.482824e-01
7.480361e-01
7.477783e-01
7.475093e-01
7.472297e-01
7.469399e-01
7.466406e-01
7.463323e-01
7.460155e-01
7.456907e-01
7.453579e-01
7.450171e-01
7.446685e-01
7.443121e-01
7.439482e-01
7.435769e-01
7.431985e-01
7.428131e-01
7.424210e-01
7.420224e-01
7.416177e-01
7.412072e-01
7.407910e-01
7.403696e-01
7.399434e-01
7.395126e-01
7.390777e-01
7.386392e-01
7.381976e-01
7.377534e-01
7.373071e-01
7.368593e-01
7.364104e-01
7.359611e-01
7.355101e-01
7.350448e-01
7.345635e-01
7.340663e-01
7.335534e-01
7.330250e-01
7.324811e-01
7.319221e-01
7.313481e-01
7.307594e-01
7.301562e-01
7.295389e-01
7.289077e-01
7.282629e-01
7.276049e-01
7.269339e-01
7.262504e-01
7.255549e-01
7.248477e-01
7.241294e-01
7.234004e-01
7.226613e-01
7.219127e-01
7.211551e-01
7.203890e-01
7.196148e-01
7.188327e-01
7.180426e-01
7.172446e-01
7.164389e-01
7.156257e-01
7.148051e-01
7.139773e-01
7.131426e-01
7.123011e-01
7.114533e-01
7.105993e-01
7.097394e-01
7.088739e-01
7.080032e-01
7.071276e-01
7.062474e-01
7.053633e-01
7.044755e-01
7.035845e-01
7.026910e-01
7.017954e-01
7.008982e-01
7.000000e-01

SCALARS il float 1
LOOKUP_TABLE default
-8.133240e-02
-8.133227e-02
-4.611726e-04
-8.133240e-02
-8.133240e-02
-8.133240e-02
-8.133240e-02
-8.133240e-02
-8.133240e-02
-8.133240e-02
-8.133240e-02
-8.133240e-02
-8.133240e-02
-8.133240e-02
-8.133240e-02
-8.133240e-02
-8.133240e-02
-8.133240e-02
-8.133240e-02
-8.133240e-02
-8.133240e-02
-8.133240e-02
-8.133240e-02
-8.133240e-02
-8.133240e-02
-8.133240e-02
-8.133240e-02
-8.133240e-02
-8.133240e-02
-8.133240e-02
-8.133240e-02
-8.133240e-02
-8.133240e-02
-8.133240e-02
-8.133240e-02
-8.133240e-02
-8.133240e-02
-8.133240e-02
-8.133240e-02
-8.133240e-02
-8.133240e-02
-8.133240e-02
-8.133240e-02
-8.133240e-02
-8.133240e-02
-8.133240e-02
-8.133240e-02
-8.133240e-02
-8.133240e-02
-8.133240e-02
-8.133240e-02
-8.133240e-02
-8.133240e-02
-8.133240e-02
-8.133240e-02
-8.133240e-02
-8.133240e-02
-8.133240e-02
-8.133240e-02
-8.133240e-02
-8.133240e-02
-8.133240e-02
-8.133240e-02
-8.133240e-02
-8.133240e-02
-8.133240e-02
-8.133240e-02
-8.133240e-02
-8.133240e-02
-8.133240e-02
-8.133240e-02
-8.133240e-02
-8.133240e-02
-8.133240e-02
-8.133240e-02
-8.133240e-02
-8.133240e-02
-8.133240e-02
-8.133240e-02
-8.133240e-02
-8.133240e-02
-8.133240e-02
-8.133240e-02
-8.133240e-02
-8.133240e-02
-8.133240e-02
-8.133240e-02
-8.133240e-02
-8.133240e-02
-8.133240e-02
-8.133240e-02
-8.133240e-02
-8.133240e-02
-8.133240e-02
-8.133240e-02
-8.133240e-02
-8.133240e-02
-8.133240e-02
-8.133240e-02
-8.133241e-02
-8.133240e-02
-8.133244e-02
-8.132009e-02
-8.128039e-02
-8.120598e-02
-8.109252e-02
-8.093790e-02
-8.074074e-02
-8.050067e-02
-8.021826e-02
-7.989483e-02
-7.953229e-02
-7.913310e-02
-7.870020e-02
-7.823711e-02
-7.774534e-02
-7.722225e-02
-7.666510e-02
-7.607325e-02
-7.544685e-02
-7.478680e-02
-7.409497e-02
-7.337421e-02
-7.262835e-02
-7.186230e-02
-7.108216e-02
-7.029525e-02
-6.949315e-02
-6.866122e-02
-6.779600e-02
-6.689586e-02
-6.596000e-02
-6.498799e-02
-6.397987e-02
-6.293623e-02
-6.185809e-02
-6.074690e-02
-5.960448e-02
-5.843305e-02
-5.723527e-02
-5.601217e-02
-5.476167e-02
-5.348149e-02
-5.217086e-02
-5.082955e-02
-4.945815e-02
-4.805730e-02
-4.663137e-02
-4.517499e-02
-4.372386e-02
-4.216559e-02
-4.094640e-02
-4.066041e-02
-4.069405e-02
-4.060234e-02
-4.049987e-02
-4.035343e-02
-4.017033e-02
-3.994793e-02
-3.968715e-02
-3.938875e-02
-3.905423e-02
-3.868547e-02
-3.828482e-02
-3.785516e-02
-3.739760e-02
-3.690970e-02
-3.638882e-02
-3.583412e-02
-3.524541e-02
-3.462318e-02
-3.396882e-02
-3.328462e-02
-3.257384e-02
-3.184082e-02
-3.109109e-02
-3.033146e-02
-2.955346e-02
-2.874264e-02
-2.789554e-02
-2.701036e-02
-2.608610e-02
-2.512207e-02
-2.411804e-02
-2.307433e-02
-2.199166e-02
-2.087125e-02
-1.971466e-02
-1.852392e-02
-1.730152e-02
-1.604833e-02
-1.476195e-02
-1.343975e-02
-1.208064e-02
-1.068404e-02
-9.250448e-03
-7.779612e-03
-6.278376e-03
-4.731737e-03
-3.211487e-03
-1.471400e-03

SCALARS is float 1
LOOKUP_TABLE default
-2.407166e-01
-1.238672e-03
-2.407166e-01
-2.407166e-01
-2.407166e-01
-2.407166e-01
-2.407166e-01
-2.407166e-01
-2.407166e-01
-2.407166e-01
-2.407166e-01
-2.407166e-01
-2.407166e-01
-2.407166e-01
-2.407166e-01
-2.407166e-01
-2.407166e-01
-2.407166e-01
-2.407166e-01
-2.407166e-01
-2.407166e-01
-2.407166e-01
-2.407166e-01
-2.407166e-01
-2.407166e-01
-2.407166e-01
-2.407166e-01
-2.407166e-01
-2.407166e-01
-2.407166e-01
-2.407166e-01
-2.407166e-01
-2.407166e-01
-2.407166e-01
-2.407166e-01
-2.407166e-01
-2.407166e-01
-2.407166e-01
-2.407166e-01
-2.407166e-01
-2.407166e-01
-2.407166e-01
-2.407166e-01
-2.407166e-01
-2.407166e-01
-2.407166e-01
-2.407166e-01
-2.407166e-01
-2.407166e-01
-2.407166e-01
-2.407166e-01
-2.407166e-01
-2.407166e-01
-2.407166e-01
-2.407166e-01
-2.407166e-01
-2.407166e-01
-2.407166e-01
-2.407166e-01
-2.407166e-01
-2.407166e-01
-2.407166e-01
-2.407166e-01
-2.407166e-01
-2.407166e-01
-2.407166e-01
-2.407166e-01
-2.407166e-01
-2.407166e-01
-2.407166e-01
-2.407166e-01
-2.407166e-01
-2.407166e-01
-2.407166e-01
-2.407166e-01
-2.407166e-01
-2.407166e-01
-2.407166e-01
-2.407166e-01
-2.407166e-01
-2.407166e-01
-2.407166e-01
-2.407166e-01
-2.407166e-01
-2.407166e-01
-2.407166e-01
-2.407166e-01
-2.407166e-01
-2.407166e-01
-2.407166e-01
-2.407166e-01
-2.407166e-01
-2.407166e-01
-2.407166e-01
-2.407166e-01
-2.407166e-01
-2.407166e-01
-2.407166e-01
-2.407166e-01
-2.407166e-01
-2.407166e-01
-2.407166e-01
7.555292e-03
2.411889e-02
3.987920e-02
5.572526e-02
7.137545e-02
8.686661e-02
1.021563e-01
1.172284e-01
1.320621e-01
1.466405e-01
1.609490e-01
1.749767e-01
1.887177e-01
2.021539e-01
2.152490e-01
2.279651e-01
2.402674e-01
2.521242e-01
2.635086e-01
2.743980e-01
2.847730e-01
2.946139e-01
3.039085e-01
3.126307e-01
3.208312e-01
3.288277e-01
3.368091e-01
3.447117e-01
3.525059e-01
3.601561e-01
3.676332e-01
3.749125e-01
3.819729e-01
3.887951e-01
3.953617e-01
4.016581e-01
4.076736e-01
4.134021e-01
4.188256e-01
4.239077e-01
4.286105e-01
4.328992e-01
4.367421e-01
4.401119e-01
4.429877e-01
4.453435e-01
4.471840e-01
4.484062e-01
4.493224e-01
4.487204e-01
4.567139e-01
4.734920e-01
4.891948e-01
5.050563e-01
5.207024e-01
5.361946e-01
5.514840e-01
5.665562e-01
5.813899e-01
5.959683e-01
6.102767e-01
6.243044e-01
6.380455e-01
6.514817e-01
6.645768e-01
6.772929e-01
6.895952e-01
7.014520e-01
7.128363e-01
7.237258e-01
7.341007e-01
7.439417e-01
7.532363e-01
7.619584e-01
7.701590e-01
7.781555e-01
7.861368e-01
7.940395e-01
8.018337e-01
8.094839e-01
8.169610e-01
8.242402e-01
8.313007e-01
8.381229e-01
8.446895e-01
8.509859e-01
8.570013e-01
8.627301e-01
8.681526e-01
8.732385e-01
8.779272e-01
8.822683e-01
8.859155e-01
8.900159e-01
8.901648e-01
9.026976e-01
8.665569e-01
1.009527e+00
4.814332e-01

CELL_DATA 200
SCALARS mat_id int 1
LOOKUP_TABLE default
1
1
1
1
1
1
1
1
1
1
1
1
1
1
1
1
1
1
1
1
1
1
1
1
1
1
1
1
1
1
1
1
1
1
1
1
1
1
1
1
1
1
1
1
1
1
1
1
1
1
1
1
1
1
1
1
1
1
1
1
1
1
1
1
1
1
1
1
1
1
1
1
1
1
1
1
1
1
1
1
1
1
1
1
1
1
1
1
1
1
1
1
1
1
1
1
1
1
1
1
2
2
2
2
2
2
2
2
2
2
2
2
2
2
2
2
2
2
2
2
2
2
2
2
2
2
2
2
2
2
2
2
2
2
2
2
2
2
2
2
2
2
2
2
2
2
2
2
2
2
2
2
2
2
2
2
2
2
2
2
2
2
2
2
2
2
2
2
2
2
2
2
2
2
2
2
2
2
2
2
2
2
2
2
2
2
2
2
2
2
2
2
2
2
2
2
2
2
2
2
