# vtk DataFile Version 2.0
step 20 time 8.333333e-02 normalized time 8.333333e-01, generated by simple.py
ASCII
DATASET UNSTRUCTURED_GRID

POINTS 201 float
0.000000e+00 0.000000e+00 0.000000e+00
1.000000e+00 0.000000e+00 0.000000e+00
2.000000e+00 0.000000e+00 0.000000e+00
1.000000e-02 0.000000e+00 0.000000e+00
2.000000e-02 0.000000e+00 0.000000e+00
3.000000e-02 0.000000e+00 0.000000e+00
4.000000e-02 0.000000e+00 0.000000e+00
5.000000e-02 0.000000e+00 0.000000e+00
6.000000e-02 0.000000e+00 0.000000e+00
7.000000e-02 0.000000e+00 0.000000e+00
8.000000e-02 0.000000e+00 0.000000e+00
9.000000e-02 0.000000e+00 0.000000e+00
1.000000e-01 0.000000e+00 0.000000e+00
1.100000e-01 0.000000e+00 0.000000e+00
1.200000e-01 0.000000e+00 0.000000e+00
1.300000e-01 0.000000e+00 0.000000e+00
1.400000e-01 0.000000e+00 0.000000e+00
1.500000e-01 0.000000e+00 0.000000e+00
1.600000e-01 0.000000e+00 0.000000e+00
1.700000e-01 0.000000e+00 0.000000e+00
1.800000e-01 0.000000e+00 0.000000e+00
1.900000e-01 0.000000e+00 0.000000e+00
2.000000e-01 0.000000e+00 0.000000e+00
2.100000e-01 0.000000e+00 0.000000e+00
2.200000e-01 0.000000e+00 0.000000e+00
2.300000e-01 0.000000e+00 0.000000e+00
2.400000e-01 0.000000e+00 0.000000e+00
2.500000e-01 0.000000e+00 0.000000e+00
2.600000e-01 0.000000e+00 0.000000e+00
2.700000e-01 0.000000e+00 0.000000e+00
2.800000e-01 0.000000e+00 0.000000e+00
2.900000e-01 0.000000e+00 0.000000e+00
3.000000e-01 0.000000e+00 0.000000e+00
3.100000e-01 0.000000e+00 0.000000e+00
3.200000e-01 0.000000e+00 0.000000e+00
3.300000e-01 0.000000e+00 0.000000e+00
3.400000e-01 0.000000e+00 0.000000e+00
3.500000e-01 0.000000e+00 0.000000e+00
3.600000e-01 0.000000e+00 0.000000e+00
3.700000e-01 0.000000e+00 0.000000e+00
3.800000e-01 0.000000e+00 0.000000e+00
3.900000e-01 0.000000e+00 0.000000e+00
4.000000e-01 0.000000e+00 0.000000e+00
4.100000e-01 0.000000e+00 0.000000e+00
4.200000e-01 0.000000e+00 0.000000e+00
4.300000e-01 0.000000e+00 0.000000e+00
4.400000e-01 0.000000e+00 0.000000e+00
4.500000e-01 0.000000e+00 0.000000e+00
4.600000e-01 0.000000e+00 0.000000e+00
4.700000e-01 0.000000e+00 0.000000e+00
4.800000e-01 0.000000e+00 0.000000e+00
4.900000e-01 0.000000e+00 0.000000e+00
5.000000e-01 0.000000e+00 0.000000e+00
5.100000e-01 0.000000e+00 0.000000e+00
5.200000e-01 0.000000e+00 0.000000e+00
5.300000e-01 0.000000e+00 0.000000e+00
5.400000e-01 0.000000e+00 0.000000e+00
5.500000e-01 0.000000e+00 0.000000e+00
5.600000e-01 0.000000e+00 0.000000e+00
5.700000e-01 0.000000e+00 0.000000e+00
5.800000e-01 0.000000e+00 0.000000e+00
5.900000e-01 0.000000e+00 0.000000e+00
6.000000e-01 0.000000e+00 0.000000e+00
6.100000e-01 0.000000e+00 0.000000e+00
6.200000e-01 0.000000e+00 0.000000e+00
6.300000e-01 0.000000e+00 0.000000e+00
6.400000e-01 0.000000e+00 0.000000e+00
6.500000e-01 0.000000e+00 0.000000e+00
6.600000e-01 0.000000e+00 0.000000e+00
6.700000e-01 0.000000e+00 0.000000e+00
6.800000e-01 0.000000e+00 0.000000e+00
6.900000e-01 0.000000e+00 0.000000e+00
7.000000e-01 0.000000e+00 0.000000e+00
7.100000e-01 0.000000e+00 0.000000e+00
7.200000e-01 0.000000e+00 0.000000e+00
7.300000e-01 0.000000e+00 0.000000e+00
7.400000e-01 0.000000e+00 0.000000e+00
7.500000e-01 0.000000e+00 0.000000e+00
7.600000e-01 0.000000e+00 0.000000e+00
7.700000e-01 0.000000e+00 0.000000e+00
7.800000e-01 0.000000e+00 0.000000e+00
7.900000e-01 0.000000e+00 0.000000e+00
8.000000e-01 0.000000e+00 0.000000e+00
8.100000e-01 0.000000e+00 0.000000e+00
8.200000e-01 0.000000e+00 0.000000e+00
8.300000e-01 0.000000e+00 0.000000e+00
8.400000e-01 0.000000e+00 0.000000e+00
8.500000e-01 0.000000e+00 0.000000e+00
8.600000e-01 0.000000e+00 0.000000e+00
8.700000e-01 0.000000e+00 0.000000e+00
8.800000e-01 0.000000e+00 0.000000e+00
8.900000e-01 0.000000e+00 0.000000e+00
9.000000e-01 0.000000e+00 0.000000e+00
9.100000e-01 0.000000e+00 0.000000e+00
9.200000e-01 0.000000e+00 0.000000e+00
9.300000e-01 0.000000e+00 0.000000e+00
9.400000e-01 0.000000e+00 0.000000e+00
9.500000e-01 0.000000e+00 0.000000e+00
9.600000e-01 0.000000e+00 0.000000e+00
9.700000e-01 0.000000e+00 0.000000e+00
9.800000e-01 0.000000e+00 0.000000e+00
9.900000e-01 0.000000e+00 0.000000e+00
1.010000e+00 0.000000e+00 0.000000e+00
1.020000e+00 0.000000e+00 0.000000e+00
1.030000e+00 0.000000e+00 0.000000e+00
1.040000e+00 0.000000e+00 0.000000e+00
1.050000e+00 0.000000e+00 0.000000e+00
1.060000e+00 0.000000e+00 0.000000e+00
1.070000e+00 0.000000e+00 0.000000e+00
1.080000e+00 0.000000e+00 0.000000e+00
1.090000e+00 0.000000e+00 0.000000e+00
1.100000e+00 0.000000e+00 0.000000e+00
1.110000e+00 0.000000e+00 0.000000e+00
1.120000e+00 0.000000e+00 0.000000e+00
1.130000e+00 0.000000e+00 0.000000e+00
1.140000e+00 0.000000e+00 0.000000e+00
1.150000e+00 0.000000e+00 0.000000e+00
1.160000e+00 0.000000e+00 0.000000e+00
1.170000e+00 0.000000e+00 0.000000e+00
1.180000e+00 0.000000e+00 0.000000e+00
1.190000e+00 0.000000e+00 0.000000e+00
1.200000e+00 0.000000e+00 0.000000e+00
1.210000e+00 0.000000e+00 0.000000e+00
1.220000e+00 0.000000e+00 0.000000e+00
1.230000e+00 0.000000e+00 0.000000e+00
1.240000e+00 0.000000e+00 0.000000e+00
1.250000e+00 0.000000e+00 0.000000e+00
1.260000e+00 0.000000e+00 0.000000e+00
1.270000e+00 0.000000e+00 0.000000e+00
1.280000e+00 0.000000e+00 0.000000e+00
1.290000e+00 0.000000e+00 0.000000e+00
1.300000e+00 0.000000e+00 0.000000e+00
1.310000e+00 0.000000e+00 0.000000e+00
1.320000e+00 0.000000e+00 0.000000e+00
1.330000e+00 0.000000e+00 0.000000e+00
1.340000e+00 0.000000e+00 0.000000e+00
1.350000e+00 0.000000e+00 0.000000e+00
1.360000e+00 0.000000e+00 0.000000e+00
1.370000e+00 0.000000e+00 0.000000e+00
1.380000e+00 0.000000e+00 0.000000e+00
1.390000e+00 0.000000e+00 0.000000e+00
1.400000e+00 0.000000e+00 0.000000e+00
1.410000e+00 0.000000e+00 0.000000e+00
1.420000e+00 0.000000e+00 0.000000e+00
1.430000e+00 0.000000e+00 0.000000e+00
1.440000e+00 0.000000e+00 0.000000e+00
1.450000e+00 0.000000e+00 0.000000e+00
1.460000e+00 0.000000e+00 0.000000e+00
1.470000e+00 0.000000e+00 0.000000e+00
1.480000e+00 0.000000e+00 0.000000e+00
1.490000e+00 0.000000e+00 0.000000e+00
1.500000e+00 0.000000e+00 0.000000e+00
1.510000e+00 0.000000e+00 0.000000e+00
1.520000e+00 0.000000e+00 0.000000e+00
1.530000e+00 0.000000e+00 0.000000e+00
1.540000e+00 0.000000e+00 0.000000e+00
1.550000e+00 0.000000e+00 0.000000e+00
1.560000e+00 0.000000e+00 0.000000e+00
1.570000e+00 0.000000e+00 0.000000e+00
1.580000e+00 0.000000e+00 0.000000e+00
1.590000e+00 0.000000e+00 0.000000e+00
1.600000e+00 0.000000e+00 0.000000e+00
1.610000e+00 0.000000e+00 0.000000e+00
1.620000e+00 0.000000e+00 0.000000e+00
1.630000e+00 0.000000e+00 0.000000e+00
1.640000e+00 0.000000e+00 0.000000e+00
1.650000e+00 0.000000e+00 0.000000e+00
1.660000e+00 0.000000e+00 0.000000e+00
1.670000e+00 0.000000e+00 0.000000e+00
1.680000e+00 0.000000e+00 0.000000e+00
1.690000e+00 0.000000e+00 0.000000e+00
1.700000e+00 0.000000e+00 0.000000e+00
1.710000e+00 0.000000e+00 0.000000e+00
1.720000e+00 0.000000e+00 0.000000e+00
1.730000e+00 0.000000e+00 0.000000e+00
1.740000e+00 0.000000e+00 0.000000e+00
1.750000e+00 0.000000e+00 0.000000e+00
1.760000e+00 0.000000e+00 0.000000e+00
1.770000e+00 0.000000e+00 0.000000e+00
1.780000e+00 0.000000e+00 0.000000e+00
1.790000e+00 0.000000e+00 0.000000e+00
1.800000e+00 0.000000e+00 0.000000e+00
1.810000e+00 0.000000e+00 0.000000e+00
1.820000e+00 0.000000e+00 0.000000e+00
1.830000e+00 0.000000e+00 0.000000e+00
1.840000e+00 0.000000e+00 0.000000e+00
1.850000e+00 0.000000e+00 0.000000e+00
1.860000e+00 0.000000e+00 0.000000e+00
1.870000e+00 0.000000e+00 0.000000e+00
1.880000e+00 0.000000e+00 0.000000e+00
1.890000e+00 0.000000e+00 0.000000e+00
1.900000e+00 0.000000e+00 0.000000e+00
1.910000e+00 0.000000e+00 0.000000e+00
1.920000e+00 0.000000e+00 0.000000e+00
1.930000e+00 0.000000e+00 0.000000e+00
1.940000e+00 0.000000e+00 0.000000e+00
1.950000e+00 0.000000e+00 0.000000e+00
1.960000e+00 0.000000e+00 0.000000e+00
1.970000e+00 0.000000e+00 0.000000e+00
1.980000e+00 0.000000e+00 0.000000e+00
1.990000e+00 0.000000e+00 0.000000e+00

CELLS 200 600
2 0 3 
2 3 4 
2 4 5 
2 5 6 
2 6 7 
2 7 8 
2 8 9 
2 9 10 
2 10 11 
2 11 12 
2 12 13 
2 13 14 
2 14 15 
2 15 16 
2 16 17 
2 17 18 
2 18 19 
2 19 20 
2 20 21 
2 21 22 
2 22 23 
2 23 24 
2 24 25 
2 25 26 
2 26 27 
2 27 28 
2 28 29 
2 29 30 
2 30 31 
2 31 32 
2 32 33 
2 33 34 
2 34 35 
2 35 36 
2 36 37 
2 37 38 
2 38 39 
2 39 40 
2 40 41 
2 41 42 
2 42 43 
2 43 44 
2 44 45 
2 45 46 
2 46 47 
2 47 48 
2 48 49 
2 49 50 
2 50 51 
2 51 52 
2 52 53 
2 53 54 
2 54 55 
2 55 56 
2 56 57 
2 57 58 
2 58 59 
2 59 60 
2 60 61 
2 61 62 
2 62 63 
2 63 64 
2 64 65 
2 65 66 
2 66 67 
2 67 68 
2 68 69 
2 69 70 
2 70 71 
2 71 72 
2 72 73 
2 73 74 
2 74 75 
2 75 76 
2 76 77 
2 77 78 
2 78 79 
2 79 80 
2 80 81 
2 81 82 
2 82 83 
2 83 84 
2 84 85 
2 85 86 
2 86 87 
2 87 88 
2 88 89 
2 89 90 
2 90 91 
2 91 92 
2 92 93 
2 93 94 
2 94 95 
2 95 96 
2 96 97 
2 97 98 
2 98 99 
2 99 100 
2 100 101 
2 101 1 
2 1 102 
2 102 103 
2 103 104 
2 104 105 
2 105 106 
2 106 107 
2 107 108 
2 108 109 
2 109 110 
2 110 111 
2 111 112 
2 112 113 
2 113 114 
2 114 115 
2 115 116 
2 116 117 
2 117 118 
2 118 119 
2 119 120 
2 120 121 
2 121 122 
2 122 123 
2 123 124 
2 124 125 
2 125 126 
2 126 127 
2 127 128 
2 128 129 
2 129 130 
2 130 131 
2 131 132 
2 132 133 
2 133 134 
2 134 135 
2 135 136 
2 136 137 
2 137 138 
2 138 139 
2 139 140 
2 140 141 
2 141 142 
2 142 143 
2 143 144 
2 144 145 
2 145 146 
2 146 147 
2 147 148 
2 148 149 
2 149 150 
2 150 151 
2 151 152 
2 152 153 
2 153 154 
2 154 155 
2 155 156 
2 156 157 
2 157 158 
2 158 159 
2 159 160 
2 160 161 
2 161 162 
2 162 163 
2 163 164 
2 164 165 
2 165 166 
2 166 167 
2 167 168 
2 168 169 
2 169 170 
2 170 171 
2 171 172 
2 172 173 
2 173 174 
2 174 175 
2 175 176 
2 176 177 
2 177 178 
2 178 179 
2 179 180 
2 180 181 
2 181 182 
2 182 183 
2 183 184 
2 184 185 
2 185 186 
2 186 187 
2 187 188 
2 188 189 
2 189 190 
2 190 191 
2 191 192 
2 192 193 
2 193 194 
2 194 195 
2 195 196 
2 196 197 
2 197 198 
2 198 199 
2 199 200 
2 200 2 

CELL_TYPES 200
3
3
3
3
3
3
3
3
3
3
3
3
3
3
3
3
3
3
3
3
3
3
3
3
3
3
3
3
3
3
3
3
3
3
3
3
3
3
3
3
3
3
3
3
3
3
3
3
3
3
3
3
3
3
3
3
3
3
3
3
3
3
3
3
3
3
3
3
3
3
3
3
3
3
3
3
3
3
3
3
3
3
3
3
3
3
3
3
3
3
3
3
3
3
3
3
3
3
3
3
3
3
3
3
3
3
3
3
3
3
3
3
3
3
3
3
3
3
3
3
3
3
3
3
3
3
3
3
3
3
3
3
3
3
3
3
3
3
3
3
3
3
3
3
3
3
3
3
3
3
3
3
3
3
3
3
3
3
3
3
3
3
3
3
3
3
3
3
3
3
3
3
3
3
3
3
3
3
3
3
3
3
3
3
3
3
3
3
3
3
3
3
3
3
3
3
3
3
3
3

POINT_DATA 201

SCALARS node_groups int 1
LOOKUP_TABLE default
1
2
3
1
1
1
1
1
1
1
1
1
1
1
1
1
1
1
1
1
1
1
1
1
1
1
1
1
1
1
1
1
1
1
1
1
1
1
1
1
1
1
1
1
1
1
1
1
1
1
1
1
1
1
1
1
1
1
1
1
1
1
1
1
1
1
1
1
1
1
1
1
1
1
1
1
1
1
1
1
1
1
1
1
1
1
1
1
1
1
1
1
1
1
1
1
1
1
1
1
1
1
2
2
2
2
2
2
2
2
2
2
2
2
2
2
2
2
2
2
2
2
2
2
2
2
2
2
2
2
2
2
2
2
2
2
2
2
2
2
2
2
2
2
2
2
2
2
2
2
2
2
2
2
2
2
2
2
2
2
2
2
2
2
2
2
2
2
2
2
2
2
2
2
2
2
2
2
2
2
2
2
2
2
2
2
2
2
2
2
2
2
2
2
2
2
2
2
2
2
2

SCALARS phil float 1
LOOKUP_TABLE default
0.000000e+00
-4.950883e-02
-7.760364e-02
-4.950883e-04
-9.901766e-04
-1.485265e-03
-1.980353e-03
-2.475442e-03
-2.970530e-03
-3.465618e-03
-3.960706e-03
-4.455795e-03
-4.950883e-03
-5.445971e-03
-5.941060e-03
-6.436148e-03
-6.931236e-03
-7.426325e-03
-7.921413e-03
-8.416501e-03
-8.911589e-03
-9.406678e-03
-9.901766e-03
-1.039685e-02
-1.089194e-02
-1.138703e-02
-1.188212e-02
-1.237721e-02
-1.287230e-02
-1.336738e-02
-1.386247e-02
-1.435756e-02
-1.485265e-02
-1.534774e-02
-1.584283e-02
-1.633791e-02
-1.683300e-02
-1.732809e-02
-1.782318e-02
-1.831827e-02
-1.881336e-02
-1.930844e-02
-1.980353e-02
-2.029862e-02
-2.079371e-02
-2.128880e-02
-2.178389e-02
-2.227897e-02
-2.277406e-02
-2.326915e-02
-2.376424e-02
-2.425933e-02
-2.475442e-02
-2.524950e-02
-2.574459e-02
-2.623968e-02
-2.673477e-02
-2.722986e-02
-2.772494e-02
-2.822003e-02
-2.871512e-02
-2.921021e-02
-2.970530e-02
-3.020039e-02
-3.069547e-02
-3.119056e-02
-3.168565e-02
-3.218074e-02
-3.267583e-02
-3.317092e-02
-3.366600e-02
-3.416109e-02
-3.465618e-02
-3.515127e-02
-3.564636e-02
-3.614145e-02
-3.663653e-02
-3.713162e-02
-3.762671e-02
-3.812180e-02
-3.861689e-02
-3.911198e-02
-3.960706e-02
-4.010215e-02
-4.059724e-02
-4.109233e-02
-4.158742e-02
-4.208251e-02
-4.257759e-02
-4.307268e-02
-4.356777e-02
-4.406286e-02
-4.455795e-02
-4.505304e-02
-4.554812e-02
-4.604321e-02
-4.653830e-02
-4.703339e-02
-4.752848e-02
-4.802357e-02
-4.851865e-02
-4.901374e-02
-5.000386e-02
-5.049858e-02
-5.099267e-02
-5.148584e-02
-5.197781e-02
-5.246831e-02
-5.295710e-02
-5.344393e-02
-5.392858e-02
-5.441084e-02
-5.489052e-02
-5.536743e-02
-5.584141e-02
-5.631231e-02
-5.677998e-02
-5.724428e-02
-5.770509e-02
-5.816229e-02
-5.861579e-02
-5.906550e-02
-5.951136e-02
-5.995330e-02
-6.039122e-02
-6.082437e-02
-6.125257e-02
-6.167580e-02
-6.209383e-02
-6.250636e-02
-6.291314e-02
-6.331392e-02
-6.370846e-02
-6.409653e-02
-6.447792e-02
-6.485243e-02
-6.521987e-02
-6.558007e-02
-6.593286e-02
-6.627810e-02
-6.661565e-02
-6.694538e-02
-6.726716e-02
-6.758088e-02
-6.788644e-02
-6.818374e-02
-6.847271e-02
-6.875329e-02
-6.902541e-02
-6.928905e-02
-6.954418e-02
-6.979080e-02
-7.003311e-02
-7.027511e-02
-7.051647e-02
-7.075692e-02
-7.099616e-02
-7.123392e-02
-7.146996e-02
-7.170403e-02
-7.193591e-02
-7.216537e-02
-7.239224e-02
-7.261632e-02
-7.283745e-02
-7.305547e-02
-7.327025e-02
-7.348163e-02
-7.368950e-02
-7.389373e-02
-7.409424e-02
-7.429092e-02
-7.448372e-02
-7.467255e-02
-7.485737e-02
-7.503796e-02
-7.521426e-02
-7.538620e-02
-7.555355e-02
-7.571599e-02
-7.587325e-02
-7.602506e-02
-7.617115e-02
-7.631127e-02
-7.644519e-02
-7.657269e-02
-7.669354e-02
-7.680756e-02
-7.691456e-02
-7.701438e-02
-7.710685e-02
-7.719182e-02
-7.726915e-02
-7.733870e-02
-7.740036e-02
-7.745401e-02
-7.749957e-02
-7.753696e-02
-7.756610e-02
-7.758694e-02
-7.759946e-02

SCALARS phis float 1
LOOKUP_TABLE default
7.000000e-01
7.254276e-01
7.000000e-01
7.000000e-01
7.000000e-01
7.000000e-01
7.000000e-01
7.000000e-01
7.000000e-01
7.000000e-01
7.000000e-01
7.000000e-01
7.000000e-01
7.000000e-01
7.000000e-01
7.000000e-01
7.000000e-01
7.000000e-01
7.000000e-01
7.000000e-01
7.000000e-01
7.000000e-01
7.000000e-01
7.000000e-01
7.000000e-01
7.000000e-01
7.000000e-01
7.000000e-01
7.000000e-01
7.000000e-01
7.000000e-01
7.000000e-01
7.000000e-01
7.000000e-01
7.000000e-01
7.000000e-01
7.000000e-01
7.000000e-01
7.000000e-01
7.000000e-01
7.000000e-01
7.000000e-01
7.000000e-01
7.000000e-01
7.000000e-01
7.000000e-01
7.000000e-01
7.000000e-01
7.000000e-01
7.000000e-01
7.000000e-01
7.000000e-01
7.000000e-01
7.000000e-01
7.000000e-01
7.000000e-01
7.000000e-01
7.000000e-01
7.000000e-01
7.000000e-01
7.000000e-01
7.000000e-01
7.000000e-01
7.000000e-01
7.000000e-01
7.000000e-01
7.000000e-01
7.000000e-01
7.000000e-01
7.000000e-01
7.000000e-01
7.000000e-01
7.000000e-01
7.000000e-01
7.000000e-01
7.000000e-01
7.000000e-01
7.000000e-01
7.000000e-01
7.000000e-01
7.000000e-01
7.000000e-01
7.000000e-01
7.000000e-01
7.000000e-01
7.000000e-01
7.000000e-01
7.000000e-01
7.000000e-01
7.000000e-01
7.000000e-01
7.000000e-01
7.000000e-01
7.000000e-01
7.000000e-01
7.000000e-01
7.000000e-01
7.000000e-01
7.000000e-01
7.000000e-01
7.000000e-01
7.000000e-01
7.254268e-01
7.254187e-01
7.254025e-01
7.253784e-01
7.253463e-01
7.253063e-01
7.252585e-01
7.252031e-01
7.251401e-01
7.250697e-01
7.249921e-01
7.249072e-01
7.248154e-01
7.247166e-01
7.246112e-01
7.244993e-01
7.243810e-01
7.242566e-01
7.241264e-01
7.239905e-01
7.238493e-01
7.237030e-01
7.235518e-01
7.233961e-01
7.232361e-01
7.230720e-01
7.229039e-01
7.227318e-01
7.225558e-01
7.223758e-01
7.221920e-01
7.220045e-01
7.218134e-01
7.216188e-01
7.214208e-01
7.212195e-01
7.210152e-01
7.208079e-01
7.205977e-01
7.203849e-01
7.201697e-01
7.199522e-01
7.197326e-01
7.195112e-01
7.192882e-01
7.190639e-01
7.188385e-01
7.186124e-01
7.183858e-01
7.181589e-01
7.179312e-01
7.176962e-01
7.174532e-01
7.172021e-01
7.169432e-01
7.166763e-01
7.164017e-01
7.161194e-01
7.158295e-01
7.155323e-01
7.152277e-01
7.149160e-01
7.145972e-01
7.142716e-01
7.139393e-01
7.136005e-01
7.132553e-01
7.129041e-01
7.125470e-01
7.121842e-01
7.118161e-01
7.114429e-01
7.110649e-01
7.106823e-01
7.102954e-01
7.099045e-01
7.095095e-01
7.091105e-01
7.087076e-01
7.083007e-01
7.078901e-01
7.074757e-01
7.070577e-01
7.066362e-01
7.062113e-01
7.057832e-01
7.053520e-01
7.049178e-01
7.044808e-01
7.040411e-01
7.035990e-01
7.031545e-01
7.027081e-01
7.022598e-01
7.018099e-01
7.013588e-01
7.009065e-01
7.004535e-01
7.000000e-01

SCALARS il float 1
LOOKUP_TABLE default
-4.950883e-02
-4.950865e-02
-2.410735e-04
-4.950883e-02
-4.950883e-02
-4.950883e-02
-4.950883e-02
-4.950883e-02
-4.950883e-02
-4.950883e-02
-4.950883e-02
-4.950883e-02
-4.950883e-02
-4.950883e-02
-4.950883e-02
-4.950883e-02
-4.950883e-02
-4.950883e-02
-4.950883e-02
-4.950883e-02
-4.950883e-02
-4.950883e-02
-4.950883e-02
-4.950883e-02
-4.950883e-02
-4.950883e-02
-4.950883e-02
-4.950883e-02
-4.950883e-02
-4.950883e-02
-4.950883e-02
-4.950883e-02
-4.950883e-02
-4.950883e-02
-4.950883e-02
-4.950883e-02
-4.950883e-02
-4.950883e-02
-4.950883e-02
-4.950883e-02
-4.950883e-02
-4.950883e-02
-4.950883e-02
-4.950883e-02
-4.950883e-02
-4.950883e-02
-4.950883e-02
-4.950883e-02
-4.950883e-02
-4.950883e-02
-4.950883e-02
-4.950883e-02
-4.950883e-02
-4.950883e-02
-4.950883e-02
-4.950883e-02
-4.950883e-02
-4.950883e-02
-4.950883e-02
-4.950883e-02
-4.950883e-02
-4.950883e-02
-4.950883e-02
-4.950883e-02
-4.950883e-02
-4.950883e-02
-4.950883e-02
-4.950883e-02
-4.950883e-02
-4.950883e-02
-4.950883e-02
-4.950883e-02
-4.950883e-02
-4.950883e-02
-4.950883e-02
-4.950883e-02
-4.950883e-02
-4.950883e-02
-4.950883e-02
-4.950883e-02
-4.950883e-02
-4.950883e-02
-4.950883e-02
-4.950883e-02
-4.950883e-02
-4.950883e-02
-4.950883e-02
-4.950883e-02
-4.950883e-02
-4.950883e-02
-4.950883e-02
-4.950883e-02
-4.950883e-02
-4.950883e-02
-4.950883e-02
-4.950883e-02
-4.950883e-02
-4.950883e-02
-4.950883e-02
-4.950883e-02
-4.950882e-02
-4.950888e-02
-4.949252e-02
-4.944534e-02
-4.936786e-02
-4.926157e-02
-4.912799e-02
-4.896860e-02
-4.878474e-02
-4.857771e-02
-4.834892e-02
-4.809991e-02
-4.783222e-02
-4.754736e-02
-4.724662e-02
-4.693083e-02
-4.660072e-02
-4.625741e-02
-4.590224e-02
-4.553669e-02
-4.516195e-02
-4.477986e-02
-4.438968e-02
-4.400123e-02
-4.356266e-02
-4.306752e-02
-4.257395e-02
-4.206730e-02
-4.153240e-02
-4.097019e-02
-4.038216e-02
-3.976968e-02
-3.913410e-02
-3.847661e-02
-3.779834e-02
-3.710054e-02
-3.638459e-02
-3.565190e-02
-3.490388e-02
-3.414175e-02
-3.336616e-02
-3.257760e-02
-3.177698e-02
-3.096546e-02
-3.014432e-02
-2.931490e-02
-2.847802e-02
-2.763622e-02
-2.678619e-02
-2.594748e-02
-2.505478e-02
-2.435935e-02
-2.418758e-02
-2.418200e-02
-2.409312e-02
-2.398942e-02
-2.385439e-02
-2.369433e-02
-2.350929e-02
-2.330090e-02
-2.307052e-02
-2.281972e-02
-2.255007e-02
-2.226315e-02
-2.196031e-02
-2.164240e-02
-2.131011e-02
-2.096450e-02
-2.060685e-02
-2.023854e-02
-1.986085e-02
-1.947512e-02
-1.908211e-02
-1.868537e-02
-1.827315e-02
-1.784460e-02
-1.741462e-02
-1.696930e-02
-1.649424e-02
-1.598999e-02
-1.545780e-02
-1.489893e-02
-1.431465e-02
-1.370610e-02
-1.307443e-02
-1.242091e-02
-1.174694e-02
-1.105399e-02
-1.034350e-02
-9.616775e-03
-8.874539e-03
-8.117372e-03
-7.346256e-03
-6.562460e-03
-5.767311e-03
-4.962319e-03
-4.148033e-03
-3.328329e-03
-2.495314e-03
-1.685952e-03
-7.702614e-04

SCALARS is float 1
LOOKUP_TABLE default
-1.215449e-01
-6.258086e-04
-1.215449e-01
-1.215449e-01
-1.215449e-01
-1.215449e-01
-1.215449e-01
-1.215449e-01
-1.215449e-01
-1.215449e-01
-1.215449e-01
-1.215449e-01
-1.215449e-01
-1.215449e-01
-1.215449e-01
-1.215449e-01
-1.215449e-01
-1.215449e-01
-1.215449e-01
-1.215449e-01
-1.215449e-01
-1.215449e-01
-1.215449e-01
-1.215449e-01
-1.215449e-01
-1.215449e-01
-1.215449e-01
-1.215449e-01
-1.215449e-01
-1.215449e-01
-1.215449e-01
-1.215449e-01
-1.215449e-01
-1.215449e-01
-1.215449e-01
-1.215449e-01
-1.215449e-01
-1.215449e-01
-1.215449e-01
-1.215449e-01
-1.215449e-01
-1.215449e-01
-1.215449e-01
-1.215449e-01
-1.215449e-01
-1.215449e-01
-1.215449e-01
-1.215449e-01
-1.215449e-01
-1.215449e-01
-1.215449e-01
-1.215449e-01
-1.215449e-01
-1.215449e-01
-1.215449e-01
-1.215449e-01
-1.215449e-01
-1.215449e-01
-1.215449e-01
-1.215449e-01
-1.215449e-01
-1.215449e-01
-1.215449e-01
-1.215449e-01
-1.215449e-01
-1.215449e-01
-1.215449e-01
-1.215449e-01
-1.215449e-01
-1.215449e-01
-1.215449e-01
-1.215449e-01
-1.215449e-01
-1.215449e-01
-1.215449e-01
-1.215449e-01
-1.215449e-01
-1.215449e-01
-1.215449e-01
-1.215449e-01
-1.215449e-01
-1.215449e-01
-1.215449e-01
-1.215449e-01
-1.215449e-01
-1.215449e-01
-1.215449e-01
-1.215449e-01
-1.215449e-01
-1.215449e-01
-1.215449e-01
-1.215449e-01
-1.215449e-01
-1.215449e-01
-1.215449e-01
-1.215449e-01
-1.215449e-01
-1.215449e-01
-1.215449e-01
-1.215449e-01
-1.215449e-01
-1.215449e-01
3.817143e-03
1.218528e-02
2.014703e-02
2.815145e-02
3.605630e-02
4.388029e-02
5.160206e-02
5.921348e-02
6.670425e-02
7.406597e-02
8.129153e-02
8.837587e-02
9.531616e-02
1.021031e-01
1.087178e-01
1.151410e-01
1.213547e-01
1.273431e-01
1.330924e-01
1.385913e-01
1.438299e-01
1.487985e-01
1.534910e-01
1.578946e-01
1.620351e-01
1.660727e-01
1.701024e-01
1.740918e-01
1.780258e-01
1.818865e-01
1.856594e-01
1.893320e-01
1.928938e-01
1.963351e-01
1.996474e-01
2.028236e-01
2.058586e-01
2.087497e-01
2.114874e-01
2.140531e-01
2.164272e-01
2.185920e-01
2.205316e-01
2.222320e-01
2.236829e-01
2.248709e-01
2.257987e-01
2.264145e-01
2.268763e-01
2.265718e-01
2.306104e-01
2.390868e-01
2.470196e-01
2.550318e-01
2.629345e-01
2.707591e-01
2.784807e-01
2.860922e-01
2.935829e-01
3.009446e-01
3.081702e-01
3.152545e-01
3.221948e-01
3.289817e-01
3.355965e-01
3.420196e-01
3.482334e-01
3.542217e-01
3.599710e-01
3.654700e-01
3.707086e-01
3.756771e-01
3.803697e-01
3.847732e-01
3.889138e-01
3.929514e-01
3.969810e-01
4.009704e-01
4.049044e-01
4.087652e-01
4.125381e-01
4.162107e-01
4.197724e-01
4.232138e-01
4.265261e-01
4.297023e-01
4.327373e-01
4.356285e-01
4.383657e-01
4.409332e-01
4.433003e-01
4.454916e-01
4.473323e-01
4.494017e-01
4.494756e-01
4.558023e-01
4.375523e-01
5.097407e-01
2.430898e-01

CELL_DATA 200
SCALARS mat_id int 1
LOOKUP_TABLE default
1
1
1
1
1
1
1
1
1
1
1
1
1
1
1
1
1
1
1
1
1
1
1
1
1
1
1
1
1
1
1
1
1
1
1
1
1
1
1
1
1
1
1
1
1
1
1
1
1
1
1
1
1
1
1
1
1
1
1
1
1
1
1
1
1
1
1
1
1
1
1
1
1
1
1
1
1
1
1
1
1
1
1
1
1
1
1
1
1
1
1
1
1
1
1
1
1
1
1
1
2
2
2
2
2
2
2
2
2
2
2
2
2
2
2
2
2
2
2
2
2
2
2
2
2
2
2
2
2
2
2
2
2
2
2
2
2
2
2
2
2
2
2
2
2
2
2
2
2
2
2
2
2
2
2
2
2
2
2
2
2
2
2
2
2
2
2
2
2
2
2
2
2
2
2
2
2
2
2
2
2
2
2
2
2
2
2
2
2
2
2
2
2
2
2
2
2
2
2
2
