# vtk DataFile Version 2.0
step 2 time 2.000000e-02 normalized time 2.000000e-01, generated by simple.py
ASCII
DATASET UNSTRUCTURED_GRID

POINTS 201 float
0.000000e+00 0.000000e+00 0.000000e+00
1.000000e+00 0.000000e+00 0.000000e+00
2.000000e+00 0.000000e+00 0.000000e+00
1.000000e-02 0.000000e+00 0.000000e+00
2.000000e-02 0.000000e+00 0.000000e+00
3.000000e-02 0.000000e+00 0.000000e+00
4.000000e-02 0.000000e+00 0.000000e+00
5.000000e-02 0.000000e+00 0.000000e+00
6.000000e-02 0.000000e+00 0.000000e+00
7.000000e-02 0.000000e+00 0.000000e+00
8.000000e-02 0.000000e+00 0.000000e+00
9.000000e-02 0.000000e+00 0.000000e+00
1.000000e-01 0.000000e+00 0.000000e+00
1.100000e-01 0.000000e+00 0.000000e+00
1.200000e-01 0.000000e+00 0.000000e+00
1.300000e-01 0.000000e+00 0.000000e+00
1.400000e-01 0.000000e+00 0.000000e+00
1.500000e-01 0.000000e+00 0.000000e+00
1.600000e-01 0.000000e+00 0.000000e+00
1.700000e-01 0.000000e+00 0.000000e+00
1.800000e-01 0.000000e+00 0.000000e+00
1.900000e-01 0.000000e+00 0.000000e+00
2.000000e-01 0.000000e+00 0.000000e+00
2.100000e-01 0.000000e+00 0.000000e+00
2.200000e-01 0.000000e+00 0.000000e+00
2.300000e-01 0.000000e+00 0.000000e+00
2.400000e-01 0.000000e+00 0.000000e+00
2.500000e-01 0.000000e+00 0.000000e+00
2.600000e-01 0.000000e+00 0.000000e+00
2.700000e-01 0.000000e+00 0.000000e+00
2.800000e-01 0.000000e+00 0.000000e+00
2.900000e-01 0.000000e+00 0.000000e+00
3.000000e-01 0.000000e+00 0.000000e+00
3.100000e-01 0.000000e+00 0.000000e+00
3.200000e-01 0.000000e+00 0.000000e+00
3.300000e-01 0.000000e+00 0.000000e+00
3.400000e-01 0.000000e+00 0.000000e+00
3.500000e-01 0.000000e+00 0.000000e+00
3.600000e-01 0.000000e+00 0.000000e+00
3.700000e-01 0.000000e+00 0.000000e+00
3.800000e-01 0.000000e+00 0.000000e+00
3.900000e-01 0.000000e+00 0.000000e+00
4.000000e-01 0.000000e+00 0.000000e+00
4.100000e-01 0.000000e+00 0.000000e+00
4.200000e-01 0.000000e+00 0.000000e+00
4.300000e-01 0.000000e+00 0.000000e+00
4.400000e-01 0.000000e+00 0.000000e+00
4.500000e-01 0.000000e+00 0.000000e+00
4.600000e-01 0.000000e+00 0.000000e+00
4.700000e-01 0.000000e+00 0.000000e+00
4.800000e-01 0.000000e+00 0.000000e+00
4.900000e-01 0.000000e+00 0.000000e+00
5.000000e-01 0.000000e+00 0.000000e+00
5.100000e-01 0.000000e+00 0.000000e+00
5.200000e-01 0.000000e+00 0.000000e+00
5.300000e-01 0.000000e+00 0.000000e+00
5.400000e-01 0.000000e+00 0.000000e+00
5.500000e-01 0.000000e+00 0.000000e+00
5.600000e-01 0.000000e+00 0.000000e+00
5.700000e-01 0.000000e+00 0.000000e+00
5.800000e-01 0.000000e+00 0.000000e+00
5.900000e-01 0.000000e+00 0.000000e+00
6.000000e-01 0.000000e+00 0.000000e+00
6.100000e-01 0.000000e+00 0.000000e+00
6.200000e-01 0.000000e+00 0.000000e+00
6.300000e-01 0.000000e+00 0.000000e+00
6.400000e-01 0.000000e+00 0.000000e+00
6.500000e-01 0.000000e+00 0.000000e+00
6.600000e-01 0.000000e+00 0.000000e+00
6.700000e-01 0.000000e+00 0.000000e+00
6.800000e-01 0.000000e+00 0.000000e+00
6.900000e-01 0.000000e+00 0.000000e+00
7.000000e-01 0.000000e+00 0.000000e+00
7.100000e-01 0.000000e+00 0.000000e+00
7.200000e-01 0.000000e+00 0.000000e+00
7.300000e-01 0.000000e+00 0.000000e+00
7.400000e-01 0.000000e+00 0.000000e+00
7.500000e-01 0.000000e+00 0.000000e+00
7.600000e-01 0.000000e+00 0.000000e+00
7.700000e-01 0.000000e+00 0.000000e+00
7.800000e-01 0.000000e+00 0.000000e+00
7.900000e-01 0.000000e+00 0.000000e+00
8.000000e-01 0.000000e+00 0.000000e+00
8.100000e-01 0.000000e+00 0.000000e+00
8.200000e-01 0.000000e+00 0.000000e+00
8.300000e-01 0.000000e+00 0.000000e+00
8.400000e-01 0.000000e+00 0.000000e+00
8.500000e-01 0.000000e+00 0.000000e+00
8.600000e-01 0.000000e+00 0.000000e+00
8.700000e-01 0.000000e+00 0.000000e+00
8.800000e-01 0.000000e+00 0.000000e+00
8.900000e-01 0.000000e+00 0.000000e+00
9.000000e-01 0.000000e+00 0.000000e+00
9.100000e-01 0.000000e+00 0.000000e+00
9.200000e-01 0.000000e+00 0.000000e+00
9.300000e-01 0.000000e+00 0.000000e+00
9.400000e-01 0.000000e+00 0.000000e+00
9.500000e-01 0.000000e+00 0.000000e+00
9.600000e-01 0.000000e+00 0.000000e+00
9.700000e-01 0.000000e+00 0.000000e+00
9.800000e-01 0.000000e+00 0.000000e+00
9.900000e-01 0.000000e+00 0.000000e+00
1.010000e+00 0.000000e+00 0.000000e+00
1.020000e+00 0.000000e+00 0.000000e+00
1.030000e+00 0.000000e+00 0.000000e+00
1.040000e+00 0.000000e+00 0.000000e+00
1.050000e+00 0.000000e+00 0.000000e+00
1.060000e+00 0.000000e+00 0.000000e+00
1.070000e+00 0.000000e+00 0.000000e+00
1.080000e+00 0.000000e+00 0.000000e+00
1.090000e+00 0.000000e+00 0.000000e+00
1.100000e+00 0.000000e+00 0.000000e+00
1.110000e+00 0.000000e+00 0.000000e+00
1.120000e+00 0.000000e+00 0.000000e+00
1.130000e+00 0.000000e+00 0.000000e+00
1.140000e+00 0.000000e+00 0.000000e+00
1.150000e+00 0.000000e+00 0.000000e+00
1.160000e+00 0.000000e+00 0.000000e+00
1.170000e+00 0.000000e+00 0.000000e+00
1.180000e+00 0.000000e+00 0.000000e+00
1.190000e+00 0.000000e+00 0.000000e+00
1.200000e+00 0.000000e+00 0.000000e+00
1.210000e+00 0.000000e+00 0.000000e+00
1.220000e+00 0.000000e+00 0.000000e+00
1.230000e+00 0.000000e+00 0.000000e+00
1.240000e+00 0.000000e+00 0.000000e+00
1.250000e+00 0.000000e+00 0.000000e+00
1.260000e+00 0.000000e+00 0.000000e+00
1.270000e+00 0.000000e+00 0.000000e+00
1.280000e+00 0.000000e+00 0.000000e+00
1.290000e+00 0.000000e+00 0.000000e+00
1.300000e+00 0.000000e+00 0.000000e+00
1.310000e+00 0.000000e+00 0.000000e+00
1.320000e+00 0.000000e+00 0.000000e+00
1.330000e+00 0.000000e+00 0.000000e+00
1.340000e+00 0.000000e+00 0.000000e+00
1.350000e+00 0.000000e+00 0.000000e+00
1.360000e+00 0.000000e+00 0.000000e+00
1.370000e+00 0.000000e+00 0.000000e+00
1.380000e+00 0.000000e+00 0.000000e+00
1.390000e+00 0.000000e+00 0.000000e+00
1.400000e+00 0.000000e+00 0.000000e+00
1.410000e+00 0.000000e+00 0.000000e+00
1.420000e+00 0.000000e+00 0.000000e+00
1.430000e+00 0.000000e+00 0.000000e+00
1.440000e+00 0.000000e+00 0.000000e+00
1.450000e+00 0.000000e+00 0.000000e+00
1.460000e+00 0.000000e+00 0.000000e+00
1.470000e+00 0.000000e+00 0.000000e+00
1.480000e+00 0.000000e+00 0.000000e+00
1.490000e+00 0.000000e+00 0.000000e+00
1.500000e+00 0.000000e+00 0.000000e+00
1.510000e+00 0.000000e+00 0.000000e+00
1.520000e+00 0.000000e+00 0.000000e+00
1.530000e+00 0.000000e+00 0.000000e+00
1.540000e+00 0.000000e+00 0.000000e+00
1.550000e+00 0.000000e+00 0.000000e+00
1.560000e+00 0.000000e+00 0.000000e+00
1.570000e+00 0.000000e+00 0.000000e+00
1.580000e+00 0.000000e+00 0.000000e+00
1.590000e+00 0.000000e+00 0.000000e+00
1.600000e+00 0.000000e+00 0.000000e+00
1.610000e+00 0.000000e+00 0.000000e+00
1.620000e+00 0.000000e+00 0.000000e+00
1.630000e+00 0.000000e+00 0.000000e+00
1.640000e+00 0.000000e+00 0.000000e+00
1.650000e+00 0.000000e+00 0.000000e+00
1.660000e+00 0.000000e+00 0.000000e+00
1.670000e+00 0.000000e+00 0.000000e+00
1.680000e+00 0.000000e+00 0.000000e+00
1.690000e+00 0.000000e+00 0.000000e+00
1.700000e+00 0.000000e+00 0.000000e+00
1.710000e+00 0.000000e+00 0.000000e+00
1.720000e+00 0.000000e+00 0.000000e+00
1.730000e+00 0.000000e+00 0.000000e+00
1.740000e+00 0.000000e+00 0.000000e+00
1.750000e+00 0.000000e+00 0.000000e+00
1.760000e+00 0.000000e+00 0.000000e+00
1.770000e+00 0.000000e+00 0.000000e+00
1.780000e+00 0.000000e+00 0.000000e+00
1.790000e+00 0.000000e+00 0.000000e+00
1.800000e+00 0.000000e+00 0.000000e+00
1.810000e+00 0.000000e+00 0.000000e+00
1.820000e+00 0.000000e+00 0.000000e+00
1.830000e+00 0.000000e+00 0.000000e+00
1.840000e+00 0.000000e+00 0.000000e+00
1.850000e+00 0.000000e+00 0.000000e+00
1.860000e+00 0.000000e+00 0.000000e+00
1.870000e+00 0.000000e+00 0.000000e+00
1.880000e+00 0.000000e+00 0.000000e+00
1.890000e+00 0.000000e+00 0.000000e+00
1.900000e+00 0.000000e+00 0.000000e+00
1.910000e+00 0.000000e+00 0.000000e+00
1.920000e+00 0.000000e+00 0.000000e+00
1.930000e+00 0.000000e+00 0.000000e+00
1.940000e+00 0.000000e+00 0.000000e+00
1.950000e+00 0.000000e+00 0.000000e+00
1.960000e+00 0.000000e+00 0.000000e+00
1.970000e+00 0.000000e+00 0.000000e+00
1.980000e+00 0.000000e+00 0.000000e+00
1.990000e+00 0.000000e+00 0.000000e+00

CELLS 200 600
2 0 3 
2 3 4 
2 4 5 
2 5 6 
2 6 7 
2 7 8 
2 8 9 
2 9 10 
2 10 11 
2 11 12 
2 12 13 
2 13 14 
2 14 15 
2 15 16 
2 16 17 
2 17 18 
2 18 19 
2 19 20 
2 20 21 
2 21 22 
2 22 23 
2 23 24 
2 24 25 
2 25 26 
2 26 27 
2 27 28 
2 28 29 
2 29 30 
2 30 31 
2 31 32 
2 32 33 
2 33 34 
2 34 35 
2 35 36 
2 36 37 
2 37 38 
2 38 39 
2 39 40 
2 40 41 
2 41 42 
2 42 43 
2 43 44 
2 44 45 
2 45 46 
2 46 47 
2 47 48 
2 48 49 
2 49 50 
2 50 51 
2 51 52 
2 52 53 
2 53 54 
2 54 55 
2 55 56 
2 56 57 
2 57 58 
2 58 59 
2 59 60 
2 60 61 
2 61 62 
2 62 63 
2 63 64 
2 64 65 
2 65 66 
2 66 67 
2 67 68 
2 68 69 
2 69 70 
2 70 71 
2 71 72 
2 72 73 
2 73 74 
2 74 75 
2 75 76 
2 76 77 
2 77 78 
2 78 79 
2 79 80 
2 80 81 
2 81 82 
2 82 83 
2 83 84 
2 84 85 
2 85 86 
2 86 87 
2 87 88 
2 88 89 
2 89 90 
2 90 91 
2 91 92 
2 92 93 
2 93 94 
2 94 95 
2 95 96 
2 96 97 
2 97 98 
2 98 99 
2 99 100 
2 100 101 
2 101 1 
2 1 102 
2 102 103 
2 103 104 
2 104 105 
2 105 106 
2 106 107 
2 107 108 
2 108 109 
2 109 110 
2 110 111 
2 111 112 
2 112 113 
2 113 114 
2 114 115 
2 115 116 
2 116 117 
2 117 118 
2 118 119 
2 119 120 
2 120 121 
2 121 122 
2 122 123 
2 123 124 
2 124 125 
2 125 126 
2 126 127 
2 127 128 
2 128 129 
2 129 130 
2 130 131 
2 131 132 
2 132 133 
2 133 134 
2 134 135 
2 135 136 
2 136 137 
2 137 138 
2 138 139 
2 139 140 
2 140 141 
2 141 142 
2 142 143 
2 143 144 
2 144 145 
2 145 146 
2 146 147 
2 147 148 
2 148 149 
2 149 150 
2 150 151 
2 151 152 
2 152 153 
2 153 154 
2 154 155 
2 155 156 
2 156 157 
2 157 158 
2 158 159 
2 159 160 
2 160 161 
2 161 162 
2 162 163 
2 163 164 
2 164 165 
2 165 166 
2 166 167 
2 167 168 
2 168 169 
2 169 170 
2 170 171 
2 171 172 
2 172 173 
2 173 174 
2 174 175 
2 175 176 
2 176 177 
2 177 178 
2 178 179 
2 179 180 
2 180 181 
2 181 182 
2 182 183 
2 183 184 
2 184 185 
2 185 186 
2 186 187 
2 187 188 
2 188 189 
2 189 190 
2 190 191 
2 191 192 
2 192 193 
2 193 194 
2 194 195 
2 195 196 
2 196 197 
2 197 198 
2 198 199 
2 199 200 
2 200 2 

CELL_TYPES 200
3
3
3
3
3
3
3
3
3
3
3
3
3
3
3
3
3
3
3
3
3
3
3
3
3
3
3
3
3
3
3
3
3
3
3
3
3
3
3
3
3
3
3
3
3
3
3
3
3
3
3
3
3
3
3
3
3
3
3
3
3
3
3
3
3
3
3
3
3
3
3
3
3
3
3
3
3
3
3
3
3
3
3
3
3
3
3
3
3
3
3
3
3
3
3
3
3
3
3
3
3
3
3
3
3
3
3
3
3
3
3
3
3
3
3
3
3
3
3
3
3
3
3
3
3
3
3
3
3
3
3
3
3
3
3
3
3
3
3
3
3
3
3
3
3
3
3
3
3
3
3
3
3
3
3
3
3
3
3
3
3
3
3
3
3
3
3
3
3
3
3
3
3
3
3
3
3
3
3
3
3
3
3
3
3
3
3
3
3
3
3
3
3
3
3
3
3
3
3
3

POINT_DATA 201

SCALARS node_groups int 1
LOOKUP_TABLE default
1
2
3
1
1
1
1
1
1
1
1
1
1
1
1
1
1
1
1
1
1
1
1
1
1
1
1
1
1
1
1
1
1
1
1
1
1
1
1
1
1
1
1
1
1
1
1
1
1
1
1
1
1
1
1
1
1
1
1
1
1
1
1
1
1
1
1
1
1
1
1
1
1
1
1
1
1
1
1
1
1
1
1
1
1
1
1
1
1
1
1
1
1
1
1
1
1
1
1
1
1
1
2
2
2
2
2
2
2
2
2
2
2
2
2
2
2
2
2
2
2
2
2
2
2
2
2
2
2
2
2
2
2
2
2
2
2
2
2
2
2
2
2
2
2
2
2
2
2
2
2
2
2
2
2
2
2
2
2
2
2
2
2
2
2
2
2
2
2
2
2
2
2
2
2
2
2
2
2
2
2
2
2
2
2
2
2
2
2
2
2
2
2
2
2
2
2
2
2
2
2

SCALARS phil float 1
LOOKUP_TABLE default
0.000000e+00
-2.727931e-01
-2.727931e-01
-2.727931e-03
-5.455861e-03
-8.183792e-03
-1.091172e-02
-1.363965e-02
-1.636758e-02
-1.909552e-02
-2.182345e-02
-2.455138e-02
-2.727931e-02
-3.000724e-02
-3.273517e-02
-3.546310e-02
-3.819103e-02
-4.091896e-02
-4.364689e-02
-4.637482e-02
-4.910275e-02
-5.183068e-02
-5.455861e-02
-5.728655e-02
-6.001448e-02
-6.274241e-02
-6.547034e-02
-6.819827e-02
-7.092620e-02
-7.365413e-02
-7.638206e-02
-7.910999e-02
-8.183792e-02
-8.456585e-02
-8.729378e-02
-9.002171e-02
-9.274964e-02
-9.547758e-02
-9.820551e-02
-1.009334e-01
-1.036614e-01
-1.063893e-01
-1.091172e-01
-1.118452e-01
-1.145731e-01
-1.173010e-01
-1.200290e-01
-1.227569e-01
-1.254848e-01
-1.282127e-01
-1.309407e-01
-1.336686e-01
-1.363965e-01
-1.391245e-01
-1.418524e-01
-1.445803e-01
-1.473083e-01
-1.500362e-01
-1.527641e-01
-1.554921e-01
-1.582200e-01
-1.609479e-01
-1.636758e-01
-1.664038e-01
-1.691317e-01
-1.718596e-01
-1.745876e-01
-1.773155e-01
-1.800434e-01
-1.827714e-01
-1.854993e-01
-1.882272e-01
-1.909552e-01
-1.936831e-01
-1.964110e-01
-1.991389e-01
-2.018669e-01
-2.045948e-01
-2.073227e-01
-2.100507e-01
-2.127786e-01
-2.155065e-01
-2.182345e-01
-2.209624e-01
-2.236903e-01
-2.264183e-01
-2.291462e-01
-2.318741e-01
-2.346020e-01
-2.373300e-01
-2.400579e-01
-2.427858e-01
-2.455138e-01
-2.482417e-01
-2.509696e-01
-2.536976e-01
-2.564255e-01
-2.591534e-01
-2.618813e-01
-2.646093e-01
-2.673372e-01
-2.700651e-01
-2.727931e-01
-2.727931e-01
-2.727931e-01
-2.727931e-01
-2.727931e-01
-2.727931e-01
-2.727931e-01
-2.727931e-01
-2.727931e-01
-2.727931e-01
-2.727931e-01
-2.727931e-01
-2.727931e-01
-2.727931e-01
-2.727931e-01
-2.727931e-01
-2.727931e-01
-2.727931e-01
-2.727931e-01
-2.727931e-01
-2.727931e-01
-2.727931e-01
-2.727931e-01
-2.727931e-01
-2.727931e-01
-2.727931e-01
-2.727931e-01
-2.727931e-01
-2.727931e-01
-2.727931e-01
-2.727931e-01
-2.727931e-01
-2.727931e-01
-2.727931e-01
-2.727931e-01
-2.727931e-01
-2.727931e-01
-2.727931e-01
-2.727931e-01
-2.727931e-01
-2.727931e-01
-2.727931e-01
-2.727931e-01
-2.727931e-01
-2.727931e-01
-2.727931e-01
-2.727931e-01
-2.727931e-01
-2.727931e-01
-2.727931e-01
-2.727931e-01
-2.727931e-01
-2.727931e-01
-2.727931e-01
-2.727931e-01
-2.727931e-01
-2.727931e-01
-2.727931e-01
-2.727931e-01
-2.727931e-01
-2.727931e-01
-2.727931e-01
-2.727931e-01
-2.727931e-01
-2.727931e-01
-2.727931e-01
-2.727931e-01
-2.727931e-01
-2.727931e-01
-2.727931e-01
-2.727931e-01
-2.727931e-01
-2.727931e-01
-2.727931e-01
-2.727931e-01
-2.727931e-01
-2.727931e-01
-2.727931e-01
-2.727931e-01
-2.727931e-01
-2.727931e-01
-2.727931e-01
-2.727931e-01
-2.727931e-01
-2.727931e-01
-2.727931e-01
-2.727931e-01
-2.727931e-01
-2.727931e-01
-2.727931e-01
-2.727931e-01
-2.727931e-01
-2.727931e-01
-2.727931e-01
-2.727931e-01
-2.727931e-01
-2.727931e-01
-2.727931e-01
-2.727931e-01

SCALARS phis float 1
LOOKUP_TABLE default
7.000000e-01
7.270065e-01
7.000000e-01
7.000000e-01
7.000000e-01
7.000000e-01
7.000000e-01
7.000000e-01
7.000000e-01
7.000000e-01
7.000000e-01
7.000000e-01
7.000000e-01
7.000000e-01
7.000000e-01
7.000000e-01
7.000000e-01
7.000000e-01
7.000000e-01
7.000000e-01
7.000000e-01
7.000000e-01
7.000000e-01
7.000000e-01
7.000000e-01
7.000000e-01
7.000000e-01
7.000000e-01
7.000000e-01
7.000000e-01
7.000000e-01
7.000000e-01
7.000000e-01
7.000000e-01
7.000000e-01
7.000000e-01
7.000000e-01
7.000000e-01
7.000000e-01
7.000000e-01
7.000000e-01
7.000000e-01
7.000000e-01
7.000000e-01
7.000000e-01
7.000000e-01
7.000000e-01
7.000000e-01
7.000000e-01
7.000000e-01
7.000000e-01
7.000000e-01
7.000000e-01
7.000000e-01
7.000000e-01
7.000000e-01
7.000000e-01
7.000000e-01
7.000000e-01
7.000000e-01
7.000000e-01
7.000000e-01
7.000000e-01
7.000000e-01
7.000000e-01
7.000000e-01
7.000000e-01
7.000000e-01
7.000000e-01
7.000000e-01
7.000000e-01
7.000000e-01
7.000000e-01
7.000000e-01
7.000000e-01
7.000000e-01
7.000000e-01
7.000000e-01
7.000000e-01
7.000000e-01
7.000000e-01
7.000000e-01
7.000000e-01
7.000000e-01
7.000000e-01
7.000000e-01
7.000000e-01
7.000000e-01
7.000000e-01
7.000000e-01
7.000000e-01
7.000000e-01
7.000000e-01
7.000000e-01
7.000000e-01
7.000000e-01
7.000000e-01
7.000000e-01
7.000000e-01
7.000000e-01
7.000000e-01
7.000000e-01
7.267337e-01
7.264609e-01
7.261881e-01
7.259153e-01
7.256425e-01
7.253698e-01
7.250970e-01
7.248242e-01
7.245514e-01
7.242786e-01
7.240058e-01
7.237330e-01
7.234602e-01
7.231874e-01
7.229146e-01
7.226418e-01
7.223690e-01
7.220962e-01
7.218234e-01
7.215507e-01
7.212779e-01
7.210051e-01
7.207323e-01
7.204595e-01
7.201867e-01
7.199139e-01
7.196411e-01
7.193683e-01
7.190955e-01
7.188227e-01
7.185499e-01
7.182771e-01
7.180043e-01
7.177315e-01
7.174588e-01
7.171860e-01
7.169132e-01
7.166404e-01
7.163676e-01
7.160948e-01
7.158220e-01
7.155492e-01
7.152764e-01
7.150036e-01
7.147308e-01
7.144580e-01
7.141852e-01
7.139124e-01
7.136397e-01
7.133669e-01
7.130941e-01
7.128213e-01
7.125485e-01
7.122757e-01
7.120029e-01
7.117301e-01
7.114573e-01
7.111845e-01
7.109117e-01
7.106389e-01
7.103661e-01
7.100933e-01
7.098206e-01
7.095478e-01
7.092750e-01
7.090022e-01
7.087294e-01
7.084566e-01
7.081838e-01
7.079110e-01
7.076382e-01
7.073654e-01
7.070926e-01
7.068198e-01
7.065470e-01
7.062742e-01
7.060014e-01
7.057287e-01
7.054559e-01
7.051831e-01
7.049103e-01
7.046375e-01
7.043647e-01
7.040919e-01
7.038191e-01
7.035463e-01
7.032735e-01
7.030007e-01
7.027279e-01
7.024551e-01
7.021823e-01
7.019096e-01
7.016368e-01
7.013640e-01
7.010912e-01
7.008184e-01
7.005456e-01
7.002728e-01
7.000000e-01

SCALARS il float 1
LOOKUP_TABLE default
-2.727931e-01
-2.727931e-01
-2.727931e-01
-2.727931e-01
-2.727931e-01
-2.727931e-01
-2.727931e-01
-2.727931e-01
-2.727931e-01
-2.727931e-01
-2.727931e-01
-2.727931e-01
-2.727931e-01
-2.727931e-01
-2.727931e-01
-2.727931e-01
-2.727931e-01
-2.727931e-01
-2.727931e-01
-2.727931e-01
-2.727931e-01
-2.727931e-01
-2.727931e-01
-2.727931e-01
-2.727931e-01
-2.727931e-01
-2.727931e-01
-2.727931e-01
-2.727931e-01
-2.727931e-01
-2.727931e-01
-2.727931e-01
-2.727931e-01
-2.727931e-01
-2.727931e-01
-2.727931e-01
-2.727931e-01
-2.727931e-01
-2.727931e-01
-2.727931e-01
-2.727931e-01
-2.727931e-01
-2.727931e-01
-2.727931e-01
-2.727931e-01
-2.727931e-01
-2.727931e-01
-2.727931e-01
-2.727931e-01
-2.727931e-01
-2.727931e-01
-2.727931e-01
-2.727931e-01
-2.727931e-01
-2.727931e-01
-2.727931e-01
-2.727931e-01
-2.727931e-01
-2.727931e-01
-2.727931e-01
-2.727931e-01
-2.727931e-01
-2.727931e-01
-2.727931e-01
-2.727931e-01
-2.727931e-01
-2.727931e-01
-2.727931e-01
-2.727931e-01
-2.727931e-01
-2.727931e-01
-2.727931e-01
-2.727931e-01
-2.727931e-01
-2.727931e-01
-2.727931e-01
-2.727931e-01
-2.727931e-01
-2.727931e-01
-2.727931e-01
-2.727931e-01
-2.727931e-01
-2.727931e-01
-2.727931e-01
-2.727931e-01
-2.727931e-01
-2.727931e-01
-2.727931e-01
-2.727931e-01
-2.727931e-01
-2.727931e-01
-2.727931e-01
-2.727931e-01
-2.727931e-01
-2.727931e-01
-2.727931e-01
-2.727931e-01
-2.727931e-01
-2.727931e-01
-2.727931e-01
-2.727931e-01
-2.727931e-01
-2.727931e-01
-2.727931e-01
-2.727931e-01
-2.727931e-01
-2.727931e-01
-2.727931e-01
-2.727931e-01
-2.727931e-01
-2.727931e-01
-2.727931e-01
-2.727931e-01
-2.727931e-01
-2.727931e-01
-2.727931e-01
-2.727931e-01
-2.727931e-01
-2.727931e-01
-2.727931e-01
-2.727931e-01
-2.727931e-01
-2.727931e-01
-2.727931e-01
-2.727931e-01
-2.727931e-01
-2.727931e-01
-2.727931e-01
-2.727931e-01
-2.727931e-01
-2.727931e-01
-2.727931e-01
-2.727931e-01
-2.727931e-01
-2.727931e-01
-2.727931e-01
-2.727931e-01
-2.727931e-01
-2.727931e-01
-2.727931e-01
-2.727931e-01
-2.727931e-01
-2.727931e-01
-2.727931e-01
-2.727931e-01
-2.727931e-01
-2.727931e-01
-2.727931e-01
-2.727931e-01
-2.727931e-01
-2.727931e-01
-2.727931e-01
-2.727931e-01
-2.727931e-01
-2.727931e-01
-2.727931e-01
-2.727931e-01
-2.727931e-01
-2.727931e-01
-2.727931e-01
-2.727931e-01
-2.727931e-01
-2.727931e-01
-2.727931e-01
-2.727931e-01
-2.727931e-01
-2.727931e-01
-2.727931e-01
-2.727931e-01
-2.727931e-01
-2.727931e-01
-2.727931e-01
-2.727931e-01
-2.727931e-01
-2.727931e-01
-2.727931e-01
-2.727931e-01
-2.727931e-01
-2.727931e-01
-2.727931e-01
-2.727931e-01
-2.727931e-01
-2.727931e-01
-2.727931e-01
-2.727931e-01
-2.727931e-01
-2.727931e-01
-2.727931e-01
-2.727931e-01
-2.727931e-01
-2.727931e-01
-2.727931e-01
-2.727931e-01
-2.727931e-01
-2.727931e-01
-2.727931e-01
-2.727931e-01
-2.727931e-01
-2.727931e-01
-2.727931e-01
-2.727931e-01

SCALARS is float 1
LOOKUP_TABLE default
-7.309468e-02
2.727931e-01
-7.309468e-02
-7.309468e-02
-7.309468e-02
-7.309468e-02
-7.309468e-02
-7.309468e-02
-7.309468e-02
-7.309468e-02
-7.309468e-02
-7.309468e-02
-7.309468e-02
-7.309468e-02
-7.309468e-02
-7.309468e-02
-7.309468e-02
-7.309468e-02
-7.309468e-02
-7.309468e-02
-7.309468e-02
-7.309468e-02
-7.309468e-02
-7.309468e-02
-7.309468e-02
-7.309468e-02
-7.309468e-02
-7.309468e-02
-7.309468e-02
-7.309468e-02
-7.309468e-02
-7.309468e-02
-7.309468e-02
-7.309468e-02
-7.309468e-02
-7.309468e-02
-7.309468e-02
-7.309468e-02
-7.309468e-02
-7.309468e-02
-7.309468e-02
-7.309468e-02
-7.309468e-02
-7.309468e-02
-7.309468e-02
-7.309468e-02
-7.309468e-02
-7.309468e-02
-7.309468e-02
-7.309468e-02
-7.309468e-02
-7.309468e-02
-7.309468e-02
-7.309468e-02
-7.309468e-02
-7.309468e-02
-7.309468e-02
-7.309468e-02
-7.309468e-02
-7.309468e-02
-7.309468e-02
-7.309468e-02
-7.309468e-02
-7.309468e-02
-7.309468e-02
-7.309468e-02
-7.309468e-02
-7.309468e-02
-7.309468e-02
-7.309468e-02
-7.309468e-02
-7.309468e-02
-7.309468e-02
-7.309468e-02
-7.309468e-02
-7.309468e-02
-7.309468e-02
-7.309468e-02
-7.309468e-02
-7.309468e-02
-7.309468e-02
-7.309468e-02
-7.309468e-02
-7.309468e-02
-7.309468e-02
-7.309468e-02
-7.309468e-02
-7.309468e-02
-7.309468e-02
-7.309468e-02
-7.309468e-02
-7.309468e-02
-7.309468e-02
-7.309468e-02
-7.309468e-02
-7.309468e-02
-7.309468e-02
-7.309468e-02
-7.309468e-02
-7.309468e-02
-7.309468e-02
-7.309468e-02
2.727931e-01
2.727931e-01
2.727931e-01
2.727931e-01
2.727931e-01
2.727931e-01
2.727931e-01
2.727931e-01
2.727931e-01
2.727931e-01
2.727931e-01
2.727931e-01
2.727931e-01
2.727931e-01
2.727931e-01
2.727931e-01
2.727931e-01
2.727931e-01
2.727931e-01
2.727931e-01
2.727931e-01
2.727931e-01
2.727931e-01
2.727931e-01
2.727931e-01
2.727931e-01
2.727931e-01
2.727931e-01
2.727931e-01
2.727931e-01
2.727931e-01
2.727931e-01
2.727931e-01
2.727931e-01
2.727931e-01
2.727931e-01
2.727931e-01
2.727931e-01
2.727931e-01
2.727931e-01
2.727931e-01
2.727931e-01
2.727931e-01
2.727931e-01
2.727931e-01
2.727931e-01
2.727931e-01
2.727931e-01
2.727931e-01
2.727931e-01
2.727931e-01
2.727931e-01
2.727931e-01
2.727931e-01
2.727931e-01
2.727931e-01
2.727931e-01
2.727931e-01
2.727931e-01
2.727931e-01
2.727931e-01
2.727931e-01
2.727931e-01
2.727931e-01
2.727931e-01
2.727931e-01
2.727931e-01
2.727931e-01
2.727931e-01
2.727931e-01
2.727931e-01
2.727931e-01
2.727931e-01
2.727931e-01
2.727931e-01
2.727931e-01
2.727931e-01
2.727931e-01
2.727931e-01
2.727931e-01
2.727931e-01
2.727931e-01
2.727931e-01
2.727931e-01
2.727931e-01
2.727931e-01
2.727931e-01
2.727931e-01
2.727928e-01
2.727940e-01
2.727897e-01
2.728056e-01
2.727462e-01
2.729679e-01
2.721405e-01
2.752287e-01
2.637033e-01
3.067164e-01
1.461894e-01

SCALARS currentl float 1
LOOKUP_TABLE default
2.727931e-01
2.727931e-01
2.727931e-01
2.727931e-01
2.727931e-01
2.727931e-01
2.727931e-01
2.727931e-01
2.727931e-01
2.727931e-01
2.727931e-01
2.727931e-01
2.727931e-01
2.727931e-01
2.727931e-01
2.727931e-01
2.727931e-01
2.727931e-01
2.727931e-01
2.727931e-01
2.727931e-01
2.727931e-01
2.727931e-01
2.727931e-01
2.727931e-01
2.727931e-01
2.727931e-01
2.727931e-01
2.727931e-01
2.727931e-01
2.727931e-01
2.727931e-01
2.727931e-01
2.727931e-01
2.727931e-01
2.727931e-01
2.727931e-01
2.727931e-01
2.727931e-01
2.727931e-01
2.727931e-01
2.727931e-01
2.727931e-01
2.727931e-01
2.727931e-01
2.727931e-01
2.727931e-01
2.727931e-01
2.727931e-01
2.727931e-01
2.727931e-01
2.727931e-01
2.727931e-01
2.727931e-01
2.727931e-01
2.727931e-01
2.727931e-01
2.727931e-01
2.727931e-01
2.727931e-01
2.727931e-01
2.727931e-01
2.727931e-01
2.727931e-01
2.727931e-01
2.727931e-01
2.727931e-01
2.727931e-01
2.727931e-01
2.727931e-01
2.727931e-01
2.727931e-01
2.727931e-01
2.727931e-01
2.727931e-01
2.727931e-01
2.727931e-01
2.727931e-01
2.727931e-01
2.727931e-01
2.727931e-01
2.727931e-01
2.727931e-01
2.727931e-01
2.727931e-01
2.727931e-01
2.727931e-01
2.727931e-01
2.727931e-01
2.727931e-01
2.727931e-01
2.727931e-01
2.727931e-01
2.727931e-01
2.727931e-01
2.727931e-01
2.727931e-01
2.727931e-01
2.727931e-01
2.727931e-01
2.727931e-01
2.727931e-01
2.727931e-01
2.727931e-01
2.727931e-01
2.727931e-01
2.727931e-01
2.727931e-01
2.727931e-01
2.727931e-01
2.727931e-01
2.727931e-01
2.727931e-01
2.727931e-01
2.727931e-01
2.727931e-01
2.727931e-01
2.727931e-01
2.727931e-01
2.727931e-01
2.727931e-01
2.727931e-01
2.727931e-01
2.727931e-01
2.727931e-01
2.727931e-01
2.727931e-01
2.727931e-01
2.727931e-01
2.727931e-01
2.727931e-01
2.727931e-01
2.727931e-01
2.727931e-01
2.727931e-01
2.727931e-01
2.727931e-01
2.727931e-01
2.727931e-01
2.727931e-01
2.727931e-01
2.727931e-01
2.727931e-01
2.727931e-01
2.727931e-01
2.727931e-01
2.727931e-01
2.727931e-01
2.727931e-01
2.727931e-01
2.727931e-01
2.727931e-01
2.727931e-01
2.727931e-01
2.727931e-01
2.727931e-01
2.727931e-01
2.727931e-01
2.727931e-01
2.727931e-01
2.727931e-01
2.727931e-01
2.727931e-01
2.727931e-01
2.727931e-01
2.727931e-01
2.727931e-01
2.727931e-01
2.727931e-01
2.727931e-01
2.727931e-01
2.727931e-01
2.727931e-01
2.727931e-01
2.727931e-01
2.727931e-01
2.727931e-01
2.727931e-01
2.727931e-01
2.727931e-01
2.727931e-01
2.727931e-01
2.727931e-01
2.727931e-01
2.727931e-01
2.727931e-01
2.727931e-01
2.727931e-01
2.727931e-01
2.727931e-01
2.727931e-01
2.727931e-01
2.727931e-01
2.727931e-01
2.727931e-01
2.727931e-01
2.727931e-01
2.727931e-01
2.727931e-01
2.727931e-01

SCALARS currents float 1
LOOKUP_TABLE default
2.727931e-01
2.727931e-01
2.727931e-01
2.727931e-01
2.727931e-01
2.727931e-01
2.727931e-01
2.727931e-01
2.727931e-01
2.727931e-01
2.727931e-01
2.727931e-01
2.727931e-01
2.727931e-01
2.727931e-01
2.727931e-01
2.727931e-01
2.727931e-01
2.727931e-01
2.727931e-01
2.727931e-01
2.727931e-01
2.727931e-01
2.727931e-01
2.727931e-01
2.727931e-01
2.727931e-01
2.727931e-01
2.727931e-01
2.727931e-01
2.727931e-01
2.727931e-01
2.727931e-01
2.727931e-01
2.727931e-01
2.727931e-01
2.727931e-01
2.727931e-01
2.727931e-01
2.727931e-01
2.727931e-01
2.727931e-01
2.727931e-01
2.727931e-01
2.727931e-01
2.727931e-01
2.727931e-01
2.727931e-01
2.727931e-01
2.727931e-01
2.727931e-01
2.727931e-01
2.727931e-01
2.727931e-01
2.727931e-01
2.727931e-01
2.727931e-01
2.727931e-01
2.727931e-01
2.727931e-01
2.727931e-01
2.727931e-01
2.727931e-01
2.727931e-01
2.727931e-01
2.727931e-01
2.727931e-01
2.727931e-01
2.727931e-01
2.727931e-01
2.727931e-01
2.727931e-01
2.727931e-01
2.727931e-01
2.727931e-01
2.727931e-01
2.727931e-01
2.727931e-01
2.727931e-01
2.727931e-01
2.727931e-01
2.727931e-01
2.727931e-01
2.727931e-01
2.727931e-01
2.727931e-01
2.727931e-01
2.727931e-01
2.727931e-01
2.727931e-01
2.727931e-01
2.727931e-01
2.727931e-01
2.727931e-01
2.727931e-01
2.727931e-01
2.727931e-01
2.727931e-01
2.727931e-01
2.727931e-01
2.727931e-01
2.727931e-01
2.727931e-01
2.727931e-01
2.727931e-01
2.727931e-01
2.727931e-01
2.727931e-01
2.727931e-01
2.727931e-01
2.727931e-01
2.727931e-01
2.727931e-01
2.727931e-01
2.727931e-01
2.727931e-01
2.727931e-01
2.727931e-01
2.727931e-01
2.727931e-01
2.727931e-01
2.727931e-01
2.727931e-01
2.727931e-01
2.727931e-01
2.727931e-01
2.727931e-01
2.727931e-01
2.727931e-01
2.727931e-01
2.727931e-01
2.727931e-01
2.727931e-01
2.727931e-01
2.727931e-01
2.727931e-01
2.727931e-01
2.727931e-01
2.727931e-01
2.727931e-01
2.727931e-01
2.727931e-01
2.727931e-01
2.727931e-01
2.727931e-01
2.727931e-01
2.727931e-01
2.727931e-01
2.727931e-01
2.727931e-01
2.727931e-01
2.727931e-01
2.727931e-01
2.727931e-01
2.727931e-01
2.727931e-01
2.727931e-01
2.727931e-01
2.727931e-01
2.727931e-01
2.727931e-01
2.727931e-01
2.727931e-01
2.727931e-01
2.727931e-01
2.727931e-01
2.727931e-01
2.727931e-01
2.727931e-01
2.727931e-01
2.727931e-01
2.727931e-01
2.727931e-01
2.727931e-01
2.727931e-01
2.727931e-01
2.727931e-01
2.727931e-01
2.727931e-01
2.727931e-01
2.727931e-01
2.727931e-01
2.727931e-01
2.727931e-01
2.727931e-01
2.727931e-01
2.727931e-01
2.727931e-01
2.727931e-01
2.727931e-01
2.727931e-01
2.727931e-01
2.727931e-01
2.727931e-01
2.727931e-01
2.727931e-01
2.727931e-01
2.727931e-01
0.000000e+00
0.000000e+00

CELL_DATA 200
SCALARS mat_id int 1
LOOKUP_TABLE default
1
1
1
1
1
1
1
1
1
1
1
1
1
1
1
1
1
1
1
1
1
1
1
1
1
1
1
1
1
1
1
1
1
1
1
1
1
1
1
1
1
1
1
1
1
1
1
1
1
1
1
1
1
1
1
1
1
1
1
1
1
1
1
1
1
1
1
1
1
1
1
1
1
1
1
1
1
1
1
1
1
1
1
1
1
1
1
1
1
1
1
1
1
1
1
1
1
1
1
1
2
2
2
2
2
2
2
2
2
2
2
2
2
2
2
2
2
2
2
2
2
2
2
2
2
2
2
2
2
2
2
2
2
2
2
2
2
2
2
2
2
2
2
2
2
2
2
2
2
2
2
2
2
2
2
2
2
2
2
2
2
2
2
2
2
2
2
2
2
2
2
2
2
2
2
2
2
2
2
2
2
2
2
2
2
2
2
2
2
2
2
2
2
2
2
2
2
2
2
2
