# vtk DataFile Version 2.0
step 24 time 1.000000e-01 normalized time 1.000000e+00, generated by simple.py
ASCII
DATASET UNSTRUCTURED_GRID

POINTS 201 float
0.000000e+00 0.000000e+00 0.000000e+00
1.000000e+00 0.000000e+00 0.000000e+00
2.000000e+00 0.000000e+00 0.000000e+00
1.000000e-02 0.000000e+00 0.000000e+00
2.000000e-02 0.000000e+00 0.000000e+00
3.000000e-02 0.000000e+00 0.000000e+00
4.000000e-02 0.000000e+00 0.000000e+00
5.000000e-02 0.000000e+00 0.000000e+00
6.000000e-02 0.000000e+00 0.000000e+00
7.000000e-02 0.000000e+00 0.000000e+00
8.000000e-02 0.000000e+00 0.000000e+00
9.000000e-02 0.000000e+00 0.000000e+00
1.000000e-01 0.000000e+00 0.000000e+00
1.100000e-01 0.000000e+00 0.000000e+00
1.200000e-01 0.000000e+00 0.000000e+00
1.300000e-01 0.000000e+00 0.000000e+00
1.400000e-01 0.000000e+00 0.000000e+00
1.500000e-01 0.000000e+00 0.000000e+00
1.600000e-01 0.000000e+00 0.000000e+00
1.700000e-01 0.000000e+00 0.000000e+00
1.800000e-01 0.000000e+00 0.000000e+00
1.900000e-01 0.000000e+00 0.000000e+00
2.000000e-01 0.000000e+00 0.000000e+00
2.100000e-01 0.000000e+00 0.000000e+00
2.200000e-01 0.000000e+00 0.000000e+00
2.300000e-01 0.000000e+00 0.000000e+00
2.400000e-01 0.000000e+00 0.000000e+00
2.500000e-01 0.000000e+00 0.000000e+00
2.600000e-01 0.000000e+00 0.000000e+00
2.700000e-01 0.000000e+00 0.000000e+00
2.800000e-01 0.000000e+00 0.000000e+00
2.900000e-01 0.000000e+00 0.000000e+00
3.000000e-01 0.000000e+00 0.000000e+00
3.100000e-01 0.000000e+00 0.000000e+00
3.200000e-01 0.000000e+00 0.000000e+00
3.300000e-01 0.000000e+00 0.000000e+00
3.400000e-01 0.000000e+00 0.000000e+00
3.500000e-01 0.000000e+00 0.000000e+00
3.600000e-01 0.000000e+00 0.000000e+00
3.700000e-01 0.000000e+00 0.000000e+00
3.800000e-01 0.000000e+00 0.000000e+00
3.900000e-01 0.000000e+00 0.000000e+00
4.000000e-01 0.000000e+00 0.000000e+00
4.100000e-01 0.000000e+00 0.000000e+00
4.200000e-01 0.000000e+00 0.000000e+00
4.300000e-01 0.000000e+00 0.000000e+00
4.400000e-01 0.000000e+00 0.000000e+00
4.500000e-01 0.000000e+00 0.000000e+00
4.600000e-01 0.000000e+00 0.000000e+00
4.700000e-01 0.000000e+00 0.000000e+00
4.800000e-01 0.000000e+00 0.000000e+00
4.900000e-01 0.000000e+00 0.000000e+00
5.000000e-01 0.000000e+00 0.000000e+00
5.100000e-01 0.000000e+00 0.000000e+00
5.200000e-01 0.000000e+00 0.000000e+00
5.300000e-01 0.000000e+00 0.000000e+00
5.400000e-01 0.000000e+00 0.000000e+00
5.500000e-01 0.000000e+00 0.000000e+00
5.600000e-01 0.000000e+00 0.000000e+00
5.700000e-01 0.000000e+00 0.000000e+00
5.800000e-01 0.000000e+00 0.000000e+00
5.900000e-01 0.000000e+00 0.000000e+00
6.000000e-01 0.000000e+00 0.000000e+00
6.100000e-01 0.000000e+00 0.000000e+00
6.200000e-01 0.000000e+00 0.000000e+00
6.300000e-01 0.000000e+00 0.000000e+00
6.400000e-01 0.000000e+00 0.000000e+00
6.500000e-01 0.000000e+00 0.000000e+00
6.600000e-01 0.000000e+00 0.000000e+00
6.700000e-01 0.000000e+00 0.000000e+00
6.800000e-01 0.000000e+00 0.000000e+00
6.900000e-01 0.000000e+00 0.000000e+00
7.000000e-01 0.000000e+00 0.000000e+00
7.100000e-01 0.000000e+00 0.000000e+00
7.200000e-01 0.000000e+00 0.000000e+00
7.300000e-01 0.000000e+00 0.000000e+00
7.400000e-01 0.000000e+00 0.000000e+00
7.500000e-01 0.000000e+00 0.000000e+00
7.600000e-01 0.000000e+00 0.000000e+00
7.700000e-01 0.000000e+00 0.000000e+00
7.800000e-01 0.000000e+00 0.000000e+00
7.900000e-01 0.000000e+00 0.000000e+00
8.000000e-01 0.000000e+00 0.000000e+00
8.100000e-01 0.000000e+00 0.000000e+00
8.200000e-01 0.000000e+00 0.000000e+00
8.300000e-01 0.000000e+00 0.000000e+00
8.400000e-01 0.000000e+00 0.000000e+00
8.500000e-01 0.000000e+00 0.000000e+00
8.600000e-01 0.000000e+00 0.000000e+00
8.700000e-01 0.000000e+00 0.000000e+00
8.800000e-01 0.000000e+00 0.000000e+00
8.900000e-01 0.000000e+00 0.000000e+00
9.000000e-01 0.000000e+00 0.000000e+00
9.100000e-01 0.000000e+00 0.000000e+00
9.200000e-01 0.000000e+00 0.000000e+00
9.300000e-01 0.000000e+00 0.000000e+00
9.400000e-01 0.000000e+00 0.000000e+00
9.500000e-01 0.000000e+00 0.000000e+00
9.600000e-01 0.000000e+00 0.000000e+00
9.700000e-01 0.000000e+00 0.000000e+00
9.800000e-01 0.000000e+00 0.000000e+00
9.900000e-01 0.000000e+00 0.000000e+00
1.010000e+00 0.000000e+00 0.000000e+00
1.020000e+00 0.000000e+00 0.000000e+00
1.030000e+00 0.000000e+00 0.000000e+00
1.040000e+00 0.000000e+00 0.000000e+00
1.050000e+00 0.000000e+00 0.000000e+00
1.060000e+00 0.000000e+00 0.000000e+00
1.070000e+00 0.000000e+00 0.000000e+00
1.080000e+00 0.000000e+00 0.000000e+00
1.090000e+00 0.000000e+00 0.000000e+00
1.100000e+00 0.000000e+00 0.000000e+00
1.110000e+00 0.000000e+00 0.000000e+00
1.120000e+00 0.000000e+00 0.000000e+00
1.130000e+00 0.000000e+00 0.000000e+00
1.140000e+00 0.000000e+00 0.000000e+00
1.150000e+00 0.000000e+00 0.000000e+00
1.160000e+00 0.000000e+00 0.000000e+00
1.170000e+00 0.000000e+00 0.000000e+00
1.180000e+00 0.000000e+00 0.000000e+00
1.190000e+00 0.000000e+00 0.000000e+00
1.200000e+00 0.000000e+00 0.000000e+00
1.210000e+00 0.000000e+00 0.000000e+00
1.220000e+00 0.000000e+00 0.000000e+00
1.230000e+00 0.000000e+00 0.000000e+00
1.240000e+00 0.000000e+00 0.000000e+00
1.250000e+00 0.000000e+00 0.000000e+00
1.260000e+00 0.000000e+00 0.000000e+00
1.270000e+00 0.000000e+00 0.000000e+00
1.280000e+00 0.000000e+00 0.000000e+00
1.290000e+00 0.000000e+00 0.000000e+00
1.300000e+00 0.000000e+00 0.000000e+00
1.310000e+00 0.000000e+00 0.000000e+00
1.320000e+00 0.000000e+00 0.000000e+00
1.330000e+00 0.000000e+00 0.000000e+00
1.340000e+00 0.000000e+00 0.000000e+00
1.350000e+00 0.000000e+00 0.000000e+00
1.360000e+00 0.000000e+00 0.000000e+00
1.370000e+00 0.000000e+00 0.000000e+00
1.380000e+00 0.000000e+00 0.000000e+00
1.390000e+00 0.000000e+00 0.000000e+00
1.400000e+00 0.000000e+00 0.000000e+00
1.410000e+00 0.000000e+00 0.000000e+00
1.420000e+00 0.000000e+00 0.000000e+00
1.430000e+00 0.000000e+00 0.000000e+00
1.440000e+00 0.000000e+00 0.000000e+00
1.450000e+00 0.000000e+00 0.000000e+00
1.460000e+00 0.000000e+00 0.000000e+00
1.470000e+00 0.000000e+00 0.000000e+00
1.480000e+00 0.000000e+00 0.000000e+00
1.490000e+00 0.000000e+00 0.000000e+00
1.500000e+00 0.000000e+00 0.000000e+00
1.510000e+00 0.000000e+00 0.000000e+00
1.520000e+00 0.000000e+00 0.000000e+00
1.530000e+00 0.000000e+00 0.000000e+00
1.540000e+00 0.000000e+00 0.000000e+00
1.550000e+00 0.000000e+00 0.000000e+00
1.560000e+00 0.000000e+00 0.000000e+00
1.570000e+00 0.000000e+00 0.000000e+00
1.580000e+00 0.000000e+00 0.000000e+00
1.590000e+00 0.000000e+00 0.000000e+00
1.600000e+00 0.000000e+00 0.000000e+00
1.610000e+00 0.000000e+00 0.000000e+00
1.620000e+00 0.000000e+00 0.000000e+00
1.630000e+00 0.000000e+00 0.000000e+00
1.640000e+00 0.000000e+00 0.000000e+00
1.650000e+00 0.000000e+00 0.000000e+00
1.660000e+00 0.000000e+00 0.000000e+00
1.670000e+00 0.000000e+00 0.000000e+00
1.680000e+00 0.000000e+00 0.000000e+00
1.690000e+00 0.000000e+00 0.000000e+00
1.700000e+00 0.000000e+00 0.000000e+00
1.710000e+00 0.000000e+00 0.000000e+00
1.720000e+00 0.000000e+00 0.000000e+00
1.730000e+00 0.000000e+00 0.000000e+00
1.740000e+00 0.000000e+00 0.000000e+00
1.750000e+00 0.000000e+00 0.000000e+00
1.760000e+00 0.000000e+00 0.000000e+00
1.770000e+00 0.000000e+00 0.000000e+00
1.780000e+00 0.000000e+00 0.000000e+00
1.790000e+00 0.000000e+00 0.000000e+00
1.800000e+00 0.000000e+00 0.000000e+00
1.810000e+00 0.000000e+00 0.000000e+00
1.820000e+00 0.000000e+00 0.000000e+00
1.830000e+00 0.000000e+00 0.000000e+00
1.840000e+00 0.000000e+00 0.000000e+00
1.850000e+00 0.000000e+00 0.000000e+00
1.860000e+00 0.000000e+00 0.000000e+00
1.870000e+00 0.000000e+00 0.000000e+00
1.880000e+00 0.000000e+00 0.000000e+00
1.890000e+00 0.000000e+00 0.000000e+00
1.900000e+00 0.000000e+00 0.000000e+00
1.910000e+00 0.000000e+00 0.000000e+00
1.920000e+00 0.000000e+00 0.000000e+00
1.930000e+00 0.000000e+00 0.000000e+00
1.940000e+00 0.000000e+00 0.000000e+00
1.950000e+00 0.000000e+00 0.000000e+00
1.960000e+00 0.000000e+00 0.000000e+00
1.970000e+00 0.000000e+00 0.000000e+00
1.980000e+00 0.000000e+00 0.000000e+00
1.990000e+00 0.000000e+00 0.000000e+00

CELLS 200 600
2 0 3 
2 3 4 
2 4 5 
2 5 6 
2 6 7 
2 7 8 
2 8 9 
2 9 10 
2 10 11 
2 11 12 
2 12 13 
2 13 14 
2 14 15 
2 15 16 
2 16 17 
2 17 18 
2 18 19 
2 19 20 
2 20 21 
2 21 22 
2 22 23 
2 23 24 
2 24 25 
2 25 26 
2 26 27 
2 27 28 
2 28 29 
2 29 30 
2 30 31 
2 31 32 
2 32 33 
2 33 34 
2 34 35 
2 35 36 
2 36 37 
2 37 38 
2 38 39 
2 39 40 
2 40 41 
2 41 42 
2 42 43 
2 43 44 
2 44 45 
2 45 46 
2 46 47 
2 47 48 
2 48 49 
2 49 50 
2 50 51 
2 51 52 
2 52 53 
2 53 54 
2 54 55 
2 55 56 
2 56 57 
2 57 58 
2 58 59 
2 59 60 
2 60 61 
2 61 62 
2 62 63 
2 63 64 
2 64 65 
2 65 66 
2 66 67 
2 67 68 
2 68 69 
2 69 70 
2 70 71 
2 71 72 
2 72 73 
2 73 74 
2 74 75 
2 75 76 
2 76 77 
2 77 78 
2 78 79 
2 79 80 
2 80 81 
2 81 82 
2 82 83 
2 83 84 
2 84 85 
2 85 86 
2 86 87 
2 87 88 
2 88 89 
2 89 90 
2 90 91 
2 91 92 
2 92 93 
2 93 94 
2 94 95 
2 95 96 
2 96 97 
2 97 98 
2 98 99 
2 99 100 
2 100 101 
2 101 1 
2 1 102 
2 102 103 
2 103 104 
2 104 105 
2 105 106 
2 106 107 
2 107 108 
2 108 109 
2 109 110 
2 110 111 
2 111 112 
2 112 113 
2 113 114 
2 114 115 
2 115 116 
2 116 117 
2 117 118 
2 118 119 
2 119 120 
2 120 121 
2 121 122 
2 122 123 
2 123 124 
2 124 125 
2 125 126 
2 126 127 
2 127 128 
2 128 129 
2 129 130 
2 130 131 
2 131 132 
2 132 133 
2 133 134 
2 134 135 
2 135 136 
2 136 137 
2 137 138 
2 138 139 
2 139 140 
2 140 141 
2 141 142 
2 142 143 
2 143 144 
2 144 145 
2 145 146 
2 146 147 
2 147 148 
2 148 149 
2 149 150 
2 150 151 
2 151 152 
2 152 153 
2 153 154 
2 154 155 
2 155 156 
2 156 157 
2 157 158 
2 158 159 
2 159 160 
2 160 161 
2 161 162 
2 162 163 
2 163 164 
2 164 165 
2 165 166 
2 166 167 
2 167 168 
2 168 169 
2 169 170 
2 170 171 
2 171 172 
2 172 173 
2 173 174 
2 174 175 
2 175 176 
2 176 177 
2 177 178 
2 178 179 
2 179 180 
2 180 181 
2 181 182 
2 182 183 
2 183 184 
2 184 185 
2 185 186 
2 186 187 
2 187 188 
2 188 189 
2 189 190 
2 190 191 
2 191 192 
2 192 193 
2 193 194 
2 194 195 
2 195 196 
2 196 197 
2 197 198 
2 198 199 
2 199 200 
2 200 2 

CELL_TYPES 200
3
3
3
3
3
3
3
3
3
3
3
3
3
3
3
3
3
3
3
3
3
3
3
3
3
3
3
3
3
3
3
3
3
3
3
3
3
3
3
3
3
3
3
3
3
3
3
3
3
3
3
3
3
3
3
3
3
3
3
3
3
3
3
3
3
3
3
3
3
3
3
3
3
3
3
3
3
3
3
3
3
3
3
3
3
3
3
3
3
3
3
3
3
3
3
3
3
3
3
3
3
3
3
3
3
3
3
3
3
3
3
3
3
3
3
3
3
3
3
3
3
3
3
3
3
3
3
3
3
3
3
3
3
3
3
3
3
3
3
3
3
3
3
3
3
3
3
3
3
3
3
3
3
3
3
3
3
3
3
3
3
3
3
3
3
3
3
3
3
3
3
3
3
3
3
3
3
3
3
3
3
3
3
3
3
3
3
3
3
3
3
3
3
3
3
3
3
3
3
3

POINT_DATA 201

SCALARS node_groups int 1
LOOKUP_TABLE default
1
2
3
1
1
1
1
1
1
1
1
1
1
1
1
1
1
1
1
1
1
1
1
1
1
1
1
1
1
1
1
1
1
1
1
1
1
1
1
1
1
1
1
1
1
1
1
1
1
1
1
1
1
1
1
1
1
1
1
1
1
1
1
1
1
1
1
1
1
1
1
1
1
1
1
1
1
1
1
1
1
1
1
1
1
1
1
1
1
1
1
1
1
1
1
1
1
1
1
1
1
1
2
2
2
2
2
2
2
2
2
2
2
2
2
2
2
2
2
2
2
2
2
2
2
2
2
2
2
2
2
2
2
2
2
2
2
2
2
2
2
2
2
2
2
2
2
2
2
2
2
2
2
2
2
2
2
2
2
2
2
2
2
2
2
2
2
2
2
2
2
2
2
2
2
2
2
2
2
2
2
2
2
2
2
2
2
2
2
2
2
2
2
2
2
2
2
2
2
2
2

SCALARS phil float 1
LOOKUP_TABLE default
0.000000e+00
-7.163441e-02
-1.147815e-01
-7.163441e-04
-1.432688e-03
-2.149032e-03
-2.865376e-03
-3.581720e-03
-4.298064e-03
-5.014409e-03
-5.730753e-03
-6.447097e-03
-7.163441e-03
-7.879785e-03
-8.596129e-03
-9.312473e-03
-1.002882e-02
-1.074516e-02
-1.146151e-02
-1.217785e-02
-1.289419e-02
-1.361054e-02
-1.432688e-02
-1.504323e-02
-1.575957e-02
-1.647591e-02
-1.719226e-02
-1.790860e-02
-1.862495e-02
-1.934129e-02
-2.005763e-02
-2.077398e-02
-2.149032e-02
-2.220667e-02
-2.292301e-02
-2.363935e-02
-2.435570e-02
-2.507204e-02
-2.578839e-02
-2.650473e-02
-2.722107e-02
-2.793742e-02
-2.865376e-02
-2.937011e-02
-3.008645e-02
-3.080280e-02
-3.151914e-02
-3.223548e-02
-3.295183e-02
-3.366817e-02
-3.438452e-02
-3.510086e-02
-3.581720e-02
-3.653355e-02
-3.724989e-02
-3.796624e-02
-3.868258e-02
-3.939892e-02
-4.011527e-02
-4.083161e-02
-4.154796e-02
-4.226430e-02
-4.298064e-02
-4.369699e-02
-4.441333e-02
-4.512968e-02
-4.584602e-02
-4.656236e-02
-4.727871e-02
-4.799505e-02
-4.871140e-02
-4.942774e-02
-5.014409e-02
-5.086043e-02
-5.157677e-02
-5.229312e-02
-5.300946e-02
-5.372581e-02
-5.444215e-02
-5.515849e-02
-5.587484e-02
-5.659118e-02
-5.730753e-02
-5.802387e-02
-5.874021e-02
-5.945656e-02
-6.017290e-02
-6.088925e-02
-6.160559e-02
-6.232193e-02
-6.303828e-02
-6.375462e-02
-6.447097e-02
-6.518731e-02
-6.590365e-02
-6.662000e-02
-6.733634e-02
-6.805269e-02
-6.876903e-02
-6.948538e-02
-7.020172e-02
-7.091806e-02
-7.235068e-02
-7.306657e-02
-7.378169e-02
-7.449568e-02
-7.520818e-02
-7.591886e-02
-7.662739e-02
-7.733345e-02
-7.803674e-02
-7.873697e-02
-7.943385e-02
-8.012711e-02
-8.081651e-02
-8.150179e-02
-8.218273e-02
-8.285910e-02
-8.353067e-02
-8.419722e-02
-8.485854e-02
-8.551443e-02
-8.616469e-02
-8.680918e-02
-8.744775e-02
-8.808028e-02
-8.870671e-02
-8.932695e-02
-8.994078e-02
-9.054791e-02
-9.114808e-02
-9.174099e-02
-9.232640e-02
-9.290403e-02
-9.347362e-02
-9.403492e-02
-9.458767e-02
-9.513163e-02
-9.566656e-02
-9.619223e-02
-9.670842e-02
-9.721490e-02
-9.771146e-02
-9.819786e-02
-9.867389e-02
-9.913934e-02
-9.959399e-02
-1.000377e-01
-1.004701e-01
-1.008913e-01
-1.013010e-01
-1.016991e-01
-1.020914e-01
-1.024833e-01
-1.028744e-01
-1.032644e-01
-1.036528e-01
-1.040394e-01
-1.044237e-01
-1.048056e-01
-1.051846e-01
-1.055604e-01
-1.059327e-01
-1.063012e-01
-1.066657e-01
-1.070258e-01
-1.073813e-01
-1.077319e-01
-1.080774e-01
-1.084174e-01
-1.087517e-01
-1.090801e-01
-1.094022e-01
-1.097179e-01
-1.100270e-01
-1.103293e-01
-1.106246e-01
-1.109128e-01
-1.111937e-01
-1.114668e-01
-1.117319e-01
-1.119885e-01
-1.122364e-01
-1.124752e-01
-1.127045e-01
-1.129239e-01
-1.131332e-01
-1.133319e-01
-1.135197e-01
-1.136961e-01
-1.138609e-01
-1.140136e-01
-1.141537e-01
-1.142810e-01
-1.143949e-01
-1.144951e-01
-1.145810e-01
-1.146522e-01
-1.147083e-01
-1.147488e-01
-1.147733e-01

SCALARS phis float 1
LOOKUP_TABLE default
7.000000e-01
7.830105e-01
7.000000e-01
7.000000e-01
7.000000e-01
7.000000e-01
7.000000e-01
7.000000e-01
7.000000e-01
7.000000e-01
7.000000e-01
7.000000e-01
7.000000e-01
7.000000e-01
7.000000e-01
7.000000e-01
7.000000e-01
7.000000e-01
7.000000e-01
7.000000e-01
7.000000e-01
7.000000e-01
7.000000e-01
7.000000e-01
7.000000e-01
7.000000e-01
7.000000e-01
7.000000e-01
7.000000e-01
7.000000e-01
7.000000e-01
7.000000e-01
7.000000e-01
7.000000e-01
7.000000e-01
7.000000e-01
7.000000e-01
7.000000e-01
7.000000e-01
7.000000e-01
7.000000e-01
7.000000e-01
7.000000e-01
7.000000e-01
7.000000e-01
7.000000e-01
7.000000e-01
7.000000e-01
7.000000e-01
7.000000e-01
7.000000e-01
7.000000e-01
7.000000e-01
7.000000e-01
7.000000e-01
7.000000e-01
7.000000e-01
7.000000e-01
7.000000e-01
7.000000e-01
7.000000e-01
7.000000e-01
7.000000e-01
7.000000e-01
7.000000e-01
7.000000e-01
7.000000e-01
7.000000e-01
7.000000e-01
7.000000e-01
7.000000e-01
7.000000e-01
7.000000e-01
7.000000e-01
7.000000e-01
7.000000e-01
7.000000e-01
7.000000e-01
7.000000e-01
7.000000e-01
7.000000e-01
7.000000e-01
7.000000e-01
7.000000e-01
7.000000e-01
7.000000e-01
7.000000e-01
7.000000e-01
7.000000e-01
7.000000e-01
7.000000e-01
7.000000e-01
7.000000e-01
7.000000e-01
7.000000e-01
7.000000e-01
7.000000e-01
7.000000e-01
7.000000e-01
7.000000e-01
7.000000e-01
7.000000e-01
7.830078e-01
7.829814e-01
7.829288e-01
7.828500e-01
7.827454e-01
7.826151e-01
7.824594e-01
7.822788e-01
7.820735e-01
7.818440e-01
7.815907e-01
7.813141e-01
7.810146e-01
7.806927e-01
7.803490e-01
7.799840e-01
7.795983e-01
7.791928e-01
7.787680e-01
7.783249e-01
7.778643e-01
7.773870e-01
7.768938e-01
7.763859e-01
7.758639e-01
7.753286e-01
7.747802e-01
7.742185e-01
7.736440e-01
7.730566e-01
7.724568e-01
7.718448e-01
7.712209e-01
7.705856e-01
7.699392e-01
7.692822e-01
7.686150e-01
7.679381e-01
7.672520e-01
7.665572e-01
7.658544e-01
7.651441e-01
7.644270e-01
7.637040e-01
7.629759e-01
7.622434e-01
7.615074e-01
7.607689e-01
7.600288e-01
7.592879e-01
7.585442e-01
7.577769e-01
7.569833e-01
7.561636e-01
7.553180e-01
7.544468e-01
7.535502e-01
7.526286e-01
7.516824e-01
7.507119e-01
7.497177e-01
7.487002e-01
7.476597e-01
7.465969e-01
7.455122e-01
7.444063e-01
7.432797e-01
7.421332e-01
7.409675e-01
7.397835e-01
7.385819e-01
7.373636e-01
7.361296e-01
7.348806e-01
7.336177e-01
7.323415e-01
7.310521e-01
7.297495e-01
7.284340e-01
7.271058e-01
7.257650e-01
7.244120e-01
7.230472e-01
7.216709e-01
7.202836e-01
7.188857e-01
7.174775e-01
7.160597e-01
7.146327e-01
7.131969e-01
7.117531e-01
7.103019e-01
7.088439e-01
7.073800e-01
7.059109e-01
7.044374e-01
7.029606e-01
7.014811e-01
7.000000e-01

SCALARS il float 1
LOOKUP_TABLE default
-7.163441e-02
-7.163419e-02
-4.739483e-04
-7.163441e-02
-7.163441e-02
-7.163441e-02
-7.163441e-02
-7.163441e-02
-7.163441e-02
-7.163441e-02
-7.163441e-02
-7.163441e-02
-7.163441e-02
-7.163441e-02
-7.163441e-02
-7.163441e-02
-7.163441e-02
-7.163441e-02
-7.163441e-02
-7.163441e-02
-7.163441e-02
-7.163441e-02
-7.163441e-02
-7.163441e-02
-7.163441e-02
-7.163441e-02
-7.163441e-02
-7.163441e-02
-7.163441e-02
-7.163441e-02
-7.163441e-02
-7.163441e-02
-7.163441e-02
-7.163441e-02
-7.163441e-02
-7.163441e-02
-7.163441e-02
-7.163441e-02
-7.163441e-02
-7.163441e-02
-7.163441e-02
-7.163441e-02
-7.163441e-02
-7.163441e-02
-7.163441e-02
-7.163441e-02
-7.163441e-02
-7.163441e-02
-7.163441e-02
-7.163441e-02
-7.163441e-02
-7.163441e-02
-7.163441e-02
-7.163441e-02
-7.163441e-02
-7.163441e-02
-7.163441e-02
-7.163441e-02
-7.163441e-02
-7.163441e-02
-7.163441e-02
-7.163441e-02
-7.163441e-02
-7.163441e-02
-7.163441e-02
-7.163441e-02
-7.163441e-02
-7.163441e-02
-7.163441e-02
-7.163441e-02
-7.163441e-02
-7.163441e-02
-7.163441e-02
-7.163441e-02
-7.163441e-02
-7.163441e-02
-7.163441e-02
-7.163441e-02
-7.163441e-02
-7.163441e-02
-7.163441e-02
-7.163441e-02
-7.163441e-02
-7.163441e-02
-7.163441e-02
-7.163441e-02
-7.163441e-02
-7.163441e-02
-7.163441e-02
-7.163441e-02
-7.163441e-02
-7.163441e-02
-7.163441e-02
-7.163441e-02
-7.163441e-02
-7.163441e-02
-7.163441e-02
-7.163441e-02
-7.163441e-02
-7.163441e-02
-7.163439e-02
-7.163447e-02
-7.161443e-02
-7.155662e-02
-7.146149e-02
-7.133043e-02
-7.116470e-02
-7.096569e-02
-7.073469e-02
-7.047269e-02
-7.018068e-02
-6.985985e-02
-6.951147e-02
-6.913693e-02
-6.873785e-02
-6.831527e-02
-6.786946e-02
-6.740073e-02
-6.690958e-02
-6.639675e-02
-6.586331e-02
-6.531063e-02
-6.474039e-02
-6.415478e-02
-6.355654e-02
-6.294903e-02
-6.233618e-02
-6.170819e-02
-6.105265e-02
-6.036927e-02
-5.965846e-02
-5.892051e-02
-5.815594e-02
-5.736525e-02
-5.654873e-02
-5.570675e-02
-5.483986e-02
-5.394864e-02
-5.303387e-02
-5.209652e-02
-5.113710e-02
-5.015549e-02
-4.915162e-02
-4.812555e-02
-4.707756e-02
-4.600843e-02
-4.491867e-02
-4.381134e-02
-4.268172e-02
-4.155680e-02
-4.034825e-02
-3.940150e-02
-3.916901e-02
-3.916755e-02
-3.905587e-02
-3.892673e-02
-3.875663e-02
-3.855334e-02
-3.831614e-02
-3.804624e-02
-3.774423e-02
-3.741102e-02
-3.704753e-02
-3.665480e-02
-3.623413e-02
-3.578622e-02
-3.531096e-02
-3.480827e-02
-3.427821e-02
-3.372110e-02
-3.313765e-02
-3.252894e-02
-3.189638e-02
-3.124205e-02
-3.056870e-02
-2.987995e-02
-2.918031e-02
-2.845987e-02
-2.770543e-02
-2.691622e-02
-2.609215e-02
-2.523302e-02
-2.433877e-02
-2.340930e-02
-2.244415e-02
-2.144281e-02
-2.040481e-02
-1.932969e-02
-1.821700e-02
-1.706660e-02
-1.587787e-02
-1.464944e-02
-1.337979e-02
-1.206745e-02
-1.071103e-02
-9.310051e-03
-7.862806e-03
-6.374301e-03
-4.826761e-03
-3.291390e-03
-1.512340e-03

SCALARS is float 1
LOOKUP_TABLE default
-3.969414e-01
-2.039662e-03
-3.969414e-01
-3.969414e-01
-3.969414e-01
-3.969414e-01
-3.969414e-01
-3.969414e-01
-3.969414e-01
-3.969414e-01
-3.969414e-01
-3.969414e-01
-3.969414e-01
-3.969414e-01
-3.969414e-01
-3.969414e-01
-3.969414e-01
-3.969414e-01
-3.969414e-01
-3.969414e-01
-3.969414e-01
-3.969414e-01
-3.969414e-01
-3.969414e-01
-3.969414e-01
-3.969414e-01
-3.969414e-01
-3.969414e-01
-3.969414e-01
-3.969414e-01
-3.969414e-01
-3.969414e-01
-3.969414e-01
-3.969414e-01
-3.969414e-01
-3.969414e-01
-3.969414e-01
-3.969414e-01
-3.969414e-01
-3.969414e-01
-3.969414e-01
-3.969414e-01
-3.969414e-01
-3.969414e-01
-3.969414e-01
-3.969414e-01
-3.969414e-01
-3.969414e-01
-3.969414e-01
-3.969414e-01
-3.969414e-01
-3.969414e-01
-3.969414e-01
-3.969414e-01
-3.969414e-01
-3.969414e-01
-3.969414e-01
-3.969414e-01
-3.969414e-01
-3.969414e-01
-3.969414e-01
-3.969414e-01
-3.969414e-01
-3.969414e-01
-3.969414e-01
-3.969414e-01
-3.969414e-01
-3.969414e-01
-3.969414e-01
-3.969414e-01
-3.969414e-01
-3.969414e-01
-3.969414e-01
-3.969414e-01
-3.969414e-01
-3.969414e-01
-3.969414e-01
-3.969414e-01
-3.969414e-01
-3.969414e-01
-3.969414e-01
-3.969414e-01
-3.969414e-01
-3.969414e-01
-3.969414e-01
-3.969414e-01
-3.969414e-01
-3.969414e-01
-3.969414e-01
-3.969414e-01
-3.969414e-01
-3.969414e-01
-3.969414e-01
-3.969414e-01
-3.969414e-01
-3.969414e-01
-3.969414e-01
-3.969414e-01
-3.969414e-01
-3.969414e-01
-3.969414e-01
-3.969414e-01
1.244096e-02
3.971509e-02
6.566566e-02
9.175661e-02
1.175246e-01
1.430307e-01
1.682056e-01
1.930228e-01
2.174490e-01
2.414565e-01
2.650221e-01
2.881288e-01
3.107673e-01
3.329072e-01
3.544883e-01
3.754478e-01
3.957281e-01
4.152773e-01
4.340510e-01
4.520124e-01
4.691290e-01
4.853690e-01
5.007122e-01
5.151162e-01
5.286645e-01
5.418779e-01
5.550653e-01
5.681215e-01
5.809969e-01
5.936332e-01
6.059825e-01
6.180042e-01
6.296638e-01
6.409297e-01
6.517737e-01
6.621722e-01
6.721084e-01
6.815727e-01
6.905346e-01
6.989332e-01
7.067054e-01
7.137932e-01
7.201443e-01
7.257134e-01
7.304660e-01
7.343588e-01
7.373998e-01
7.394192e-01
7.409317e-01
7.399413e-01
7.531038e-01
7.807311e-01
8.065871e-01
8.327034e-01
8.584645e-01
8.839725e-01
9.091469e-01
9.339643e-01
9.583904e-01
9.823979e-01
1.005963e+00
1.029070e+00
1.051709e+00
1.073849e+00
1.095430e+00
1.116389e+00
1.136669e+00
1.156219e+00
1.174992e+00
1.192954e+00
1.210070e+00
1.226310e+00
1.241654e+00
1.256058e+00
1.269606e+00
1.282819e+00
1.296007e+00
1.309063e+00
1.321938e+00
1.334575e+00
1.346924e+00
1.358946e+00
1.370605e+00
1.381871e+00
1.392715e+00
1.403114e+00
1.413050e+00
1.422514e+00
1.431475e+00
1.439880e+00
1.447629e+00
1.454803e+00
1.460831e+00
1.467605e+00
1.467861e+00
1.488536e+00
1.428946e+00
1.664707e+00
7.938827e-01

CELL_DATA 200
SCALARS mat_id int 1
LOOKUP_TABLE default
1
1
1
1
1
1
1
1
1
1
1
1
1
1
1
1
1
1
1
1
1
1
1
1
1
1
1
1
1
1
1
1
1
1
1
1
1
1
1
1
1
1
1
1
1
1
1
1
1
1
1
1
1
1
1
1
1
1
1
1
1
1
1
1
1
1
1
1
1
1
1
1
1
1
1
1
1
1
1
1
1
1
1
1
1
1
1
1
1
1
1
1
1
1
1
1
1
1
1
1
2
2
2
2
2
2
2
2
2
2
2
2
2
2
2
2
2
2
2
2
2
2
2
2
2
2
2
2
2
2
2
2
2
2
2
2
2
2
2
2
2
2
2
2
2
2
2
2
2
2
2
2
2
2
2
2
2
2
2
2
2
2
2
2
2
2
2
2
2
2
2
2
2
2
2
2
2
2
2
2
2
2
2
2
2
2
2
2
2
2
2
2
2
2
2
2
2
2
2
2
