# vtk DataFile Version 2.0
step 22 time 9.166667e-02 normalized time 9.166667e-01, generated by simple.py
ASCII
DATASET UNSTRUCTURED_GRID

POINTS 201 float
0.000000e+00 0.000000e+00 0.000000e+00
1.000000e+00 0.000000e+00 0.000000e+00
2.000000e+00 0.000000e+00 0.000000e+00
1.000000e-02 0.000000e+00 0.000000e+00
2.000000e-02 0.000000e+00 0.000000e+00
3.000000e-02 0.000000e+00 0.000000e+00
4.000000e-02 0.000000e+00 0.000000e+00
5.000000e-02 0.000000e+00 0.000000e+00
6.000000e-02 0.000000e+00 0.000000e+00
7.000000e-02 0.000000e+00 0.000000e+00
8.000000e-02 0.000000e+00 0.000000e+00
9.000000e-02 0.000000e+00 0.000000e+00
1.000000e-01 0.000000e+00 0.000000e+00
1.100000e-01 0.000000e+00 0.000000e+00
1.200000e-01 0.000000e+00 0.000000e+00
1.300000e-01 0.000000e+00 0.000000e+00
1.400000e-01 0.000000e+00 0.000000e+00
1.500000e-01 0.000000e+00 0.000000e+00
1.600000e-01 0.000000e+00 0.000000e+00
1.700000e-01 0.000000e+00 0.000000e+00
1.800000e-01 0.000000e+00 0.000000e+00
1.900000e-01 0.000000e+00 0.000000e+00
2.000000e-01 0.000000e+00 0.000000e+00
2.100000e-01 0.000000e+00 0.000000e+00
2.200000e-01 0.000000e+00 0.000000e+00
2.300000e-01 0.000000e+00 0.000000e+00
2.400000e-01 0.000000e+00 0.000000e+00
2.500000e-01 0.000000e+00 0.000000e+00
2.600000e-01 0.000000e+00 0.000000e+00
2.700000e-01 0.000000e+00 0.000000e+00
2.800000e-01 0.000000e+00 0.000000e+00
2.900000e-01 0.000000e+00 0.000000e+00
3.000000e-01 0.000000e+00 0.000000e+00
3.100000e-01 0.000000e+00 0.000000e+00
3.200000e-01 0.000000e+00 0.000000e+00
3.300000e-01 0.000000e+00 0.000000e+00
3.400000e-01 0.000000e+00 0.000000e+00
3.500000e-01 0.000000e+00 0.000000e+00
3.600000e-01 0.000000e+00 0.000000e+00
3.700000e-01 0.000000e+00 0.000000e+00
3.800000e-01 0.000000e+00 0.000000e+00
3.900000e-01 0.000000e+00 0.000000e+00
4.000000e-01 0.000000e+00 0.000000e+00
4.100000e-01 0.000000e+00 0.000000e+00
4.200000e-01 0.000000e+00 0.000000e+00
4.300000e-01 0.000000e+00 0.000000e+00
4.400000e-01 0.000000e+00 0.000000e+00
4.500000e-01 0.000000e+00 0.000000e+00
4.600000e-01 0.000000e+00 0.000000e+00
4.700000e-01 0.000000e+00 0.000000e+00
4.800000e-01 0.000000e+00 0.000000e+00
4.900000e-01 0.000000e+00 0.000000e+00
5.000000e-01 0.000000e+00 0.000000e+00
5.100000e-01 0.000000e+00 0.000000e+00
5.200000e-01 0.000000e+00 0.000000e+00
5.300000e-01 0.000000e+00 0.000000e+00
5.400000e-01 0.000000e+00 0.000000e+00
5.500000e-01 0.000000e+00 0.000000e+00
5.600000e-01 0.000000e+00 0.000000e+00
5.700000e-01 0.000000e+00 0.000000e+00
5.800000e-01 0.000000e+00 0.000000e+00
5.900000e-01 0.000000e+00 0.000000e+00
6.000000e-01 0.000000e+00 0.000000e+00
6.100000e-01 0.000000e+00 0.000000e+00
6.200000e-01 0.000000e+00 0.000000e+00
6.300000e-01 0.000000e+00 0.000000e+00
6.400000e-01 0.000000e+00 0.000000e+00
6.500000e-01 0.000000e+00 0.000000e+00
6.600000e-01 0.000000e+00 0.000000e+00
6.700000e-01 0.000000e+00 0.000000e+00
6.800000e-01 0.000000e+00 0.000000e+00
6.900000e-01 0.000000e+00 0.000000e+00
7.000000e-01 0.000000e+00 0.000000e+00
7.100000e-01 0.000000e+00 0.000000e+00
7.200000e-01 0.000000e+00 0.000000e+00
7.300000e-01 0.000000e+00 0.000000e+00
7.400000e-01 0.000000e+00 0.000000e+00
7.500000e-01 0.000000e+00 0.000000e+00
7.600000e-01 0.000000e+00 0.000000e+00
7.700000e-01 0.000000e+00 0.000000e+00
7.800000e-01 0.000000e+00 0.000000e+00
7.900000e-01 0.000000e+00 0.000000e+00
8.000000e-01 0.000000e+00 0.000000e+00
8.100000e-01 0.000000e+00 0.000000e+00
8.200000e-01 0.000000e+00 0.000000e+00
8.300000e-01 0.000000e+00 0.000000e+00
8.400000e-01 0.000000e+00 0.000000e+00
8.500000e-01 0.000000e+00 0.000000e+00
8.600000e-01 0.000000e+00 0.000000e+00
8.700000e-01 0.000000e+00 0.000000e+00
8.800000e-01 0.000000e+00 0.000000e+00
8.900000e-01 0.000000e+00 0.000000e+00
9.000000e-01 0.000000e+00 0.000000e+00
9.100000e-01 0.000000e+00 0.000000e+00
9.200000e-01 0.000000e+00 0.000000e+00
9.300000e-01 0.000000e+00 0.000000e+00
9.400000e-01 0.000000e+00 0.000000e+00
9.500000e-01 0.000000e+00 0.000000e+00
9.600000e-01 0.000000e+00 0.000000e+00
9.700000e-01 0.000000e+00 0.000000e+00
9.800000e-01 0.000000e+00 0.000000e+00
9.900000e-01 0.000000e+00 0.000000e+00
1.010000e+00 0.000000e+00 0.000000e+00
1.020000e+00 0.000000e+00 0.000000e+00
1.030000e+00 0.000000e+00 0.000000e+00
1.040000e+00 0.000000e+00 0.000000e+00
1.050000e+00 0.000000e+00 0.000000e+00
1.060000e+00 0.000000e+00 0.000000e+00
1.070000e+00 0.000000e+00 0.000000e+00
1.080000e+00 0.000000e+00 0.000000e+00
1.090000e+00 0.000000e+00 0.000000e+00
1.100000e+00 0.000000e+00 0.000000e+00
1.110000e+00 0.000000e+00 0.000000e+00
1.120000e+00 0.000000e+00 0.000000e+00
1.130000e+00 0.000000e+00 0.000000e+00
1.140000e+00 0.000000e+00 0.000000e+00
1.150000e+00 0.000000e+00 0.000000e+00
1.160000e+00 0.000000e+00 0.000000e+00
1.170000e+00 0.000000e+00 0.000000e+00
1.180000e+00 0.000000e+00 0.000000e+00
1.190000e+00 0.000000e+00 0.000000e+00
1.200000e+00 0.000000e+00 0.000000e+00
1.210000e+00 0.000000e+00 0.000000e+00
1.220000e+00 0.000000e+00 0.000000e+00
1.230000e+00 0.000000e+00 0.000000e+00
1.240000e+00 0.000000e+00 0.000000e+00
1.250000e+00 0.000000e+00 0.000000e+00
1.260000e+00 0.000000e+00 0.000000e+00
1.270000e+00 0.000000e+00 0.000000e+00
1.280000e+00 0.000000e+00 0.000000e+00
1.290000e+00 0.000000e+00 0.000000e+00
1.300000e+00 0.000000e+00 0.000000e+00
1.310000e+00 0.000000e+00 0.000000e+00
1.320000e+00 0.000000e+00 0.000000e+00
1.330000e+00 0.000000e+00 0.000000e+00
1.340000e+00 0.000000e+00 0.000000e+00
1.350000e+00 0.000000e+00 0.000000e+00
1.360000e+00 0.000000e+00 0.000000e+00
1.370000e+00 0.000000e+00 0.000000e+00
1.380000e+00 0.000000e+00 0.000000e+00
1.390000e+00 0.000000e+00 0.000000e+00
1.400000e+00 0.000000e+00 0.000000e+00
1.410000e+00 0.000000e+00 0.000000e+00
1.420000e+00 0.000000e+00 0.000000e+00
1.430000e+00 0.000000e+00 0.000000e+00
1.440000e+00 0.000000e+00 0.000000e+00
1.450000e+00 0.000000e+00 0.000000e+00
1.460000e+00 0.000000e+00 0.000000e+00
1.470000e+00 0.000000e+00 0.000000e+00
1.480000e+00 0.000000e+00 0.000000e+00
1.490000e+00 0.000000e+00 0.000000e+00
1.500000e+00 0.000000e+00 0.000000e+00
1.510000e+00 0.000000e+00 0.000000e+00
1.520000e+00 0.000000e+00 0.000000e+00
1.530000e+00 0.000000e+00 0.000000e+00
1.540000e+00 0.000000e+00 0.000000e+00
1.550000e+00 0.000000e+00 0.000000e+00
1.560000e+00 0.000000e+00 0.000000e+00
1.570000e+00 0.000000e+00 0.000000e+00
1.580000e+00 0.000000e+00 0.000000e+00
1.590000e+00 0.000000e+00 0.000000e+00
1.600000e+00 0.000000e+00 0.000000e+00
1.610000e+00 0.000000e+00 0.000000e+00
1.620000e+00 0.000000e+00 0.000000e+00
1.630000e+00 0.000000e+00 0.000000e+00
1.640000e+00 0.000000e+00 0.000000e+00
1.650000e+00 0.000000e+00 0.000000e+00
1.660000e+00 0.000000e+00 0.000000e+00
1.670000e+00 0.000000e+00 0.000000e+00
1.680000e+00 0.000000e+00 0.000000e+00
1.690000e+00 0.000000e+00 0.000000e+00
1.700000e+00 0.000000e+00 0.000000e+00
1.710000e+00 0.000000e+00 0.000000e+00
1.720000e+00 0.000000e+00 0.000000e+00
1.730000e+00 0.000000e+00 0.000000e+00
1.740000e+00 0.000000e+00 0.000000e+00
1.750000e+00 0.000000e+00 0.000000e+00
1.760000e+00 0.000000e+00 0.000000e+00
1.770000e+00 0.000000e+00 0.000000e+00
1.780000e+00 0.000000e+00 0.000000e+00
1.790000e+00 0.000000e+00 0.000000e+00
1.800000e+00 0.000000e+00 0.000000e+00
1.810000e+00 0.000000e+00 0.000000e+00
1.820000e+00 0.000000e+00 0.000000e+00
1.830000e+00 0.000000e+00 0.000000e+00
1.840000e+00 0.000000e+00 0.000000e+00
1.850000e+00 0.000000e+00 0.000000e+00
1.860000e+00 0.000000e+00 0.000000e+00
1.870000e+00 0.000000e+00 0.000000e+00
1.880000e+00 0.000000e+00 0.000000e+00
1.890000e+00 0.000000e+00 0.000000e+00
1.900000e+00 0.000000e+00 0.000000e+00
1.910000e+00 0.000000e+00 0.000000e+00
1.920000e+00 0.000000e+00 0.000000e+00
1.930000e+00 0.000000e+00 0.000000e+00
1.940000e+00 0.000000e+00 0.000000e+00
1.950000e+00 0.000000e+00 0.000000e+00
1.960000e+00 0.000000e+00 0.000000e+00
1.970000e+00 0.000000e+00 0.000000e+00
1.980000e+00 0.000000e+00 0.000000e+00
1.990000e+00 0.000000e+00 0.000000e+00

CELLS 200 600
2 0 3 
2 3 4 
2 4 5 
2 5 6 
2 6 7 
2 7 8 
2 8 9 
2 9 10 
2 10 11 
2 11 12 
2 12 13 
2 13 14 
2 14 15 
2 15 16 
2 16 17 
2 17 18 
2 18 19 
2 19 20 
2 20 21 
2 21 22 
2 22 23 
2 23 24 
2 24 25 
2 25 26 
2 26 27 
2 27 28 
2 28 29 
2 29 30 
2 30 31 
2 31 32 
2 32 33 
2 33 34 
2 34 35 
2 35 36 
2 36 37 
2 37 38 
2 38 39 
2 39 40 
2 40 41 
2 41 42 
2 42 43 
2 43 44 
2 44 45 
2 45 46 
2 46 47 
2 47 48 
2 48 49 
2 49 50 
2 50 51 
2 51 52 
2 52 53 
2 53 54 
2 54 55 
2 55 56 
2 56 57 
2 57 58 
2 58 59 
2 59 60 
2 60 61 
2 61 62 
2 62 63 
2 63 64 
2 64 65 
2 65 66 
2 66 67 
2 67 68 
2 68 69 
2 69 70 
2 70 71 
2 71 72 
2 72 73 
2 73 74 
2 74 75 
2 75 76 
2 76 77 
2 77 78 
2 78 79 
2 79 80 
2 80 81 
2 81 82 
2 82 83 
2 83 84 
2 84 85 
2 85 86 
2 86 87 
2 87 88 
2 88 89 
2 89 90 
2 90 91 
2 91 92 
2 92 93 
2 93 94 
2 94 95 
2 95 96 
2 96 97 
2 97 98 
2 98 99 
2 99 100 
2 100 101 
2 101 1 
2 1 102 
2 102 103 
2 103 104 
2 104 105 
2 105 106 
2 106 107 
2 107 108 
2 108 109 
2 109 110 
2 110 111 
2 111 112 
2 112 113 
2 113 114 
2 114 115 
2 115 116 
2 116 117 
2 117 118 
2 118 119 
2 119 120 
2 120 121 
2 121 122 
2 122 123 
2 123 124 
2 124 125 
2 125 126 
2 126 127 
2 127 128 
2 128 129 
2 129 130 
2 130 131 
2 131 132 
2 132 133 
2 133 134 
2 134 135 
2 135 136 
2 136 137 
2 137 138 
2 138 139 
2 139 140 
2 140 141 
2 141 142 
2 142 143 
2 143 144 
2 144 145 
2 145 146 
2 146 147 
2 147 148 
2 148 149 
2 149 150 
2 150 151 
2 151 152 
2 152 153 
2 153 154 
2 154 155 
2 155 156 
2 156 157 
2 157 158 
2 158 159 
2 159 160 
2 160 161 
2 161 162 
2 162 163 
2 163 164 
2 164 165 
2 165 166 
2 166 167 
2 167 168 
2 168 169 
2 169 170 
2 170 171 
2 171 172 
2 172 173 
2 173 174 
2 174 175 
2 175 176 
2 176 177 
2 177 178 
2 178 179 
2 179 180 
2 180 181 
2 181 182 
2 182 183 
2 183 184 
2 184 185 
2 185 186 
2 186 187 
2 187 188 
2 188 189 
2 189 190 
2 190 191 
2 191 192 
2 192 193 
2 193 194 
2 194 195 
2 195 196 
2 196 197 
2 197 198 
2 198 199 
2 199 200 
2 200 2 

CELL_TYPES 200
3
3
3
3
3
3
3
3
3
3
3
3
3
3
3
3
3
3
3
3
3
3
3
3
3
3
3
3
3
3
3
3
3
3
3
3
3
3
3
3
3
3
3
3
3
3
3
3
3
3
3
3
3
3
3
3
3
3
3
3
3
3
3
3
3
3
3
3
3
3
3
3
3
3
3
3
3
3
3
3
3
3
3
3
3
3
3
3
3
3
3
3
3
3
3
3
3
3
3
3
3
3
3
3
3
3
3
3
3
3
3
3
3
3
3
3
3
3
3
3
3
3
3
3
3
3
3
3
3
3
3
3
3
3
3
3
3
3
3
3
3
3
3
3
3
3
3
3
3
3
3
3
3
3
3
3
3
3
3
3
3
3
3
3
3
3
3
3
3
3
3
3
3
3
3
3
3
3
3
3
3
3
3
3
3
3
3
3
3
3
3
3
3
3
3
3
3
3
3
3

POINT_DATA 201

SCALARS node_groups int 1
LOOKUP_TABLE default
1
2
3
1
1
1
1
1
1
1
1
1
1
1
1
1
1
1
1
1
1
1
1
1
1
1
1
1
1
1
1
1
1
1
1
1
1
1
1
1
1
1
1
1
1
1
1
1
1
1
1
1
1
1
1
1
1
1
1
1
1
1
1
1
1
1
1
1
1
1
1
1
1
1
1
1
1
1
1
1
1
1
1
1
1
1
1
1
1
1
1
1
1
1
1
1
1
1
1
1
1
1
2
2
2
2
2
2
2
2
2
2
2
2
2
2
2
2
2
2
2
2
2
2
2
2
2
2
2
2
2
2
2
2
2
2
2
2
2
2
2
2
2
2
2
2
2
2
2
2
2
2
2
2
2
2
2
2
2
2
2
2
2
2
2
2
2
2
2
2
2
2
2
2
2
2
2
2
2
2
2
2
2
2
2
2
2
2
2
2
2
2
2
2
2
2
2
2
2
2
2

SCALARS phil float 1
LOOKUP_TABLE default
0.000000e+00
-7.028997e-02
-1.116072e-01
-7.028997e-04
-1.405799e-03
-2.108699e-03
-2.811599e-03
-3.514498e-03
-4.217398e-03
-4.920298e-03
-5.623198e-03
-6.326097e-03
-7.028997e-03
-7.731897e-03
-8.434796e-03
-9.137696e-03
-9.840596e-03
-1.054350e-02
-1.124640e-02
-1.194929e-02
-1.265219e-02
-1.335509e-02
-1.405799e-02
-1.476089e-02
-1.546379e-02
-1.616669e-02
-1.686959e-02
-1.757249e-02
-1.827539e-02
-1.897829e-02
-1.968119e-02
-2.038409e-02
-2.108699e-02
-2.178989e-02
-2.249279e-02
-2.319569e-02
-2.389859e-02
-2.460149e-02
-2.530439e-02
-2.600729e-02
-2.671019e-02
-2.741309e-02
-2.811599e-02
-2.881889e-02
-2.952179e-02
-3.022469e-02
-3.092759e-02
-3.163049e-02
-3.233339e-02
-3.303629e-02
-3.373919e-02
-3.444208e-02
-3.514498e-02
-3.584788e-02
-3.655078e-02
-3.725368e-02
-3.795658e-02
-3.865948e-02
-3.936238e-02
-4.006528e-02
-4.076818e-02
-4.147108e-02
-4.217398e-02
-4.287688e-02
-4.357978e-02
-4.428268e-02
-4.498558e-02
-4.568848e-02
-4.639138e-02
-4.709428e-02
-4.779718e-02
-4.850008e-02
-4.920298e-02
-4.990588e-02
-5.060878e-02
-5.131168e-02
-5.201458e-02
-5.271748e-02
-5.342038e-02
-5.412328e-02
-5.482618e-02
-5.552908e-02
-5.623198e-02
-5.693487e-02
-5.763777e-02
-5.834067e-02
-5.904357e-02
-5.974647e-02
-6.044937e-02
-6.115227e-02
-6.185517e-02
-6.255807e-02
-6.326097e-02
-6.396387e-02
-6.466677e-02
-6.536967e-02
-6.607257e-02
-6.677547e-02
-6.747837e-02
-6.818127e-02
-6.888417e-02
-6.958707e-02
-7.099279e-02
-7.169519e-02
-7.239675e-02
-7.309706e-02
-7.379572e-02
-7.449235e-02
-7.518658e-02
-7.587806e-02
-7.656647e-02
-7.725150e-02
-7.793287e-02
-7.861032e-02
-7.928363e-02
-7.995259e-02
-8.061700e-02
-8.127668e-02
-8.193142e-02
-8.258105e-02
-8.322540e-02
-8.386431e-02
-8.449765e-02
-8.512530e-02
-8.574716e-02
-8.636316e-02
-8.697325e-02
-8.757736e-02
-8.817516e-02
-8.876628e-02
-8.935032e-02
-8.992693e-02
-9.049574e-02
-9.105642e-02
-9.160863e-02
-9.215207e-02
-9.268645e-02
-9.321150e-02
-9.372697e-02
-9.423265e-02
-9.472835e-02
-9.521387e-02
-9.568901e-02
-9.615357e-02
-9.660735e-02
-9.705017e-02
-9.748187e-02
-9.790228e-02
-9.831128e-02
-9.870875e-02
-9.909460e-02
-9.946877e-02
-9.983702e-02
-1.002049e-01
-1.005719e-01
-1.009378e-01
-1.013021e-01
-1.016644e-01
-1.020244e-01
-1.023818e-01
-1.027361e-01
-1.030872e-01
-1.034346e-01
-1.037782e-01
-1.041177e-01
-1.044528e-01
-1.047834e-01
-1.051092e-01
-1.054300e-01
-1.057457e-01
-1.060559e-01
-1.063606e-01
-1.066595e-01
-1.069525e-01
-1.072395e-01
-1.075203e-01
-1.077950e-01
-1.080633e-01
-1.083250e-01
-1.085795e-01
-1.088264e-01
-1.090653e-01
-1.092957e-01
-1.095174e-01
-1.097297e-01
-1.099324e-01
-1.101251e-01
-1.103074e-01
-1.104791e-01
-1.106397e-01
-1.107891e-01
-1.109270e-01
-1.110530e-01
-1.111668e-01
-1.112682e-01
-1.113569e-01
-1.114326e-01
-1.114949e-01
-1.115438e-01
-1.115789e-01
-1.116001e-01

SCALARS phis float 1
LOOKUP_TABLE default
7.000000e-01
7.520077e-01
7.000000e-01
7.000000e-01
7.000000e-01
7.000000e-01
7.000000e-01
7.000000e-01
7.000000e-01
7.000000e-01
7.000000e-01
7.000000e-01
7.000000e-01
7.000000e-01
7.000000e-01
7.000000e-01
7.000000e-01
7.000000e-01
7.000000e-01
7.000000e-01
7.000000e-01
7.000000e-01
7.000000e-01
7.000000e-01
7.000000e-01
7.000000e-01
7.000000e-01
7.000000e-01
7.000000e-01
7.000000e-01
7.000000e-01
7.000000e-01
7.000000e-01
7.000000e-01
7.000000e-01
7.000000e-01
7.000000e-01
7.000000e-01
7.000000e-01
7.000000e-01
7.000000e-01
7.000000e-01
7.000000e-01
7.000000e-01
7.000000e-01
7.000000e-01
7.000000e-01
7.000000e-01
7.000000e-01
7.000000e-01
7.000000e-01
7.000000e-01
7.000000e-01
7.000000e-01
7.000000e-01
7.000000e-01
7.000000e-01
7.000000e-01
7.000000e-01
7.000000e-01
7.000000e-01
7.000000e-01
7.000000e-01
7.000000e-01
7.000000e-01
7.000000e-01
7.000000e-01
7.000000e-01
7.000000e-01
7.000000e-01
7.000000e-01
7.000000e-01
7.000000e-01
7.000000e-01
7.000000e-01
7.000000e-01
7.000000e-01
7.000000e-01
7.000000e-01
7.000000e-01
7.000000e-01
7.000000e-01
7.000000e-01
7.000000e-01
7.000000e-01
7.000000e-01
7.000000e-01
7.000000e-01
7.000000e-01
7.000000e-01
7.000000e-01
7.000000e-01
7.000000e-01
7.000000e-01
7.000000e-01
7.000000e-01
7.000000e-01
7.000000e-01
7.000000e-01
7.000000e-01
7.000000e-01
7.000000e-01
7.520060e-01
7.519894e-01
7.519564e-01
7.519071e-01
7.518415e-01
7.517598e-01
7.516622e-01
7.515489e-01
7.514203e-01
7.512764e-01
7.511176e-01
7.509442e-01
7.507565e-01
7.505547e-01
7.503392e-01
7.501104e-01
7.498687e-01
7.496145e-01
7.493482e-01
7.490705e-01
7.487818e-01
7.484826e-01
7.481736e-01
7.478552e-01
7.475281e-01
7.471927e-01
7.468489e-01
7.464970e-01
7.461370e-01
7.457690e-01
7.453931e-01
7.450097e-01
7.446188e-01
7.442208e-01
7.438158e-01
7.434042e-01
7.429862e-01
7.425621e-01
7.421323e-01
7.416971e-01
7.412568e-01
7.408118e-01
7.403626e-01
7.399097e-01
7.394535e-01
7.389947e-01
7.385337e-01
7.380711e-01
7.376074e-01
7.371433e-01
7.366774e-01
7.361967e-01
7.356996e-01
7.351861e-01
7.346563e-01
7.341105e-01
7.335488e-01
7.329714e-01
7.323786e-01
7.317706e-01
7.311476e-01
7.305101e-01
7.298582e-01
7.291923e-01
7.285127e-01
7.278197e-01
7.271138e-01
7.263955e-01
7.256651e-01
7.249232e-01
7.241704e-01
7.234071e-01
7.226339e-01
7.218514e-01
7.210601e-01
7.202605e-01
7.194527e-01
7.186366e-01
7.178125e-01
7.169803e-01
7.161403e-01
7.152927e-01
7.144377e-01
7.135755e-01
7.127064e-01
7.118306e-01
7.109485e-01
7.100603e-01
7.091664e-01
7.082670e-01
7.073625e-01
7.064534e-01
7.055401e-01
7.046230e-01
7.037027e-01
7.027797e-01
7.018546e-01
7.009278e-01
7.000000e-01

SCALARS il float 1
LOOKUP_TABLE default
-7.028997e-02
-7.028973e-02
-4.083276e-04
-7.028997e-02
-7.028997e-02
-7.028997e-02
-7.028997e-02
-7.028997e-02
-7.028997e-02
-7.028997e-02
-7.028997e-02
-7.028997e-02
-7.028997e-02
-7.028997e-02
-7.028997e-02
-7.028997e-02
-7.028997e-02
-7.028997e-02
-7.028997e-02
-7.028997e-02
-7.028997e-02
-7.028997e-02
-7.028997e-02
-7.028997e-02
-7.028997e-02
-7.028997e-02
-7.028997e-02
-7.028997e-02
-7.028997e-02
-7.028997e-02
-7.028997e-02
-7.028997e-02
-7.028997e-02
-7.028997e-02
-7.028997e-02
-7.028997e-02
-7.028997e-02
-7.028997e-02
-7.028997e-02
-7.028997e-02
-7.028997e-02
-7.028997e-02
-7.028997e-02
-7.028997e-02
-7.028997e-02
-7.028997e-02
-7.028997e-02
-7.028997e-02
-7.028997e-02
-7.028997e-02
-7.028997e-02
-7.028997e-02
-7.028997e-02
-7.028997e-02
-7.028997e-02
-7.028997e-02
-7.028997e-02
-7.028997e-02
-7.028997e-02
-7.028997e-02
-7.028997e-02
-7.028997e-02
-7.028997e-02
-7.028997e-02
-7.028997e-02
-7.028997e-02
-7.028997e-02
-7.028997e-02
-7.028997e-02
-7.028997e-02
-7.028997e-02
-7.028997e-02
-7.028997e-02
-7.028997e-02
-7.028997e-02
-7.028997e-02
-7.028997e-02
-7.028997e-02
-7.028997e-02
-7.028997e-02
-7.028997e-02
-7.028997e-02
-7.028997e-02
-7.028997e-02
-7.028997e-02
-7.028997e-02
-7.028997e-02
-7.028997e-02
-7.028997e-02
-7.028997e-02
-7.028997e-02
-7.028997e-02
-7.028997e-02
-7.028997e-02
-7.028997e-02
-7.028997e-02
-7.028997e-02
-7.028997e-02
-7.028997e-02
-7.028997e-02
-7.028995e-02
-7.029003e-02
-7.026821e-02
-7.020494e-02
-7.010012e-02
-6.995488e-02
-6.977050e-02
-6.954866e-02
-6.929121e-02
-6.899998e-02
-6.867701e-02
-6.832454e-02
-6.794508e-02
-6.754142e-02
-6.711651e-02
-6.667194e-02
-6.620769e-02
-6.572403e-02
-6.522171e-02
-6.470178e-02
-6.416562e-02
-6.361483e-02
-6.305118e-02
-6.247671e-02
-6.189375e-02
-6.130507e-02
-6.071336e-02
-6.010190e-02
-5.945222e-02
-5.876423e-02
-5.803879e-02
-5.727693e-02
-5.648004e-02
-5.564972e-02
-5.478761e-02
-5.389549e-02
-5.297544e-02
-5.202976e-02
-5.106107e-02
-5.007218e-02
-4.906432e-02
-4.803647e-02
-4.698816e-02
-4.592012e-02
-4.483318e-02
-4.372872e-02
-4.260775e-02
-4.147370e-02
-4.032192e-02
-3.917941e-02
-3.795660e-02
-3.700077e-02
-3.676616e-02
-3.676383e-02
-3.664894e-02
-3.651455e-02
-3.633677e-02
-3.612349e-02
-3.587436e-02
-3.559134e-02
-3.527596e-02
-3.493017e-02
-3.455616e-02
-3.415643e-02
-3.373371e-02
-3.328934e-02
-3.282314e-02
-3.233516e-02
-3.182596e-02
-3.129638e-02
-3.074766e-02
-3.018124e-02
-2.959879e-02
-2.900226e-02
-2.839393e-02
-2.777659e-02
-2.715300e-02
-2.650538e-02
-2.581393e-02
-2.507810e-02
-2.429837e-02
-2.347541e-02
-2.261031e-02
-2.170439e-02
-2.075902e-02
-1.977578e-02
-1.875655e-02
-1.770354e-02
-1.661930e-02
-1.550670e-02
-1.436676e-02
-1.319755e-02
-1.199792e-02
-1.076826e-02
-9.509073e-03
-8.221682e-03
-6.906244e-03
-5.568593e-03
-4.194634e-03
-2.846487e-03
-1.303963e-03

SCALARS is float 1
LOOKUP_TABLE default
-2.486533e-01
-1.278730e-03
-2.486533e-01
-2.486533e-01
-2.486533e-01
-2.486533e-01
-2.486533e-01
-2.486533e-01
-2.486533e-01
-2.486533e-01
-2.486533e-01
-2.486533e-01
-2.486533e-01
-2.486533e-01
-2.486533e-01
-2.486533e-01
-2.486533e-01
-2.486533e-01
-2.486533e-01
-2.486533e-01
-2.486533e-01
-2.486533e-01
-2.486533e-01
-2.486533e-01
-2.486533e-01
-2.486533e-01
-2.486533e-01
-2.486533e-01
-2.486533e-01
-2.486533e-01
-2.486533e-01
-2.486533e-01
-2.486533e-01
-2.486533e-01
-2.486533e-01
-2.486533e-01
-2.486533e-01
-2.486533e-01
-2.486533e-01
-2.486533e-01
-2.486533e-01
-2.486533e-01
-2.486533e-01
-2.486533e-01
-2.486533e-01
-2.486533e-01
-2.486533e-01
-2.486533e-01
-2.486533e-01
-2.486533e-01
-2.486533e-01
-2.486533e-01
-2.486533e-01
-2.486533e-01
-2.486533e-01
-2.486533e-01
-2.486533e-01
-2.486533e-01
-2.486533e-01
-2.486533e-01
-2.486533e-01
-2.486533e-01
-2.486533e-01
-2.486533e-01
-2.486533e-01
-2.486533e-01
-2.486533e-01
-2.486533e-01
-2.486533e-01
-2.486533e-01
-2.486533e-01
-2.486533e-01
-2.486533e-01
-2.486533e-01
-2.486533e-01
-2.486533e-01
-2.486533e-01
-2.486533e-01
-2.486533e-01
-2.486533e-01
-2.486533e-01
-2.486533e-01
-2.486533e-01
-2.486533e-01
-2.486533e-01
-2.486533e-01
-2.486533e-01
-2.486533e-01
-2.486533e-01
-2.486533e-01
-2.486533e-01
-2.486533e-01
-2.486533e-01
-2.486533e-01
-2.486533e-01
-2.486533e-01
-2.486533e-01
-2.486533e-01
-2.486533e-01
-2.486533e-01
-2.486533e-01
-2.486533e-01
7.799649e-03
2.489862e-02
4.116761e-02
5.752430e-02
7.367813e-02
8.966740e-02
1.054486e-01
1.210052e-01
1.363163e-01
1.513646e-01
1.661356e-01
1.806188e-01
1.948082e-01
2.086850e-01
2.222109e-01
2.353462e-01
2.480547e-01
2.603036e-01
2.720650e-01
2.833158e-01
2.940357e-01
3.042047e-01
3.138103e-01
3.228260e-01
3.313043e-01
3.395724e-01
3.478243e-01
3.559940e-01
3.640505e-01
3.719573e-01
3.796844e-01
3.872065e-01
3.945021e-01
4.015515e-01
4.083370e-01
4.148441e-01
4.210623e-01
4.269857e-01
4.325950e-01
4.378522e-01
4.427172e-01
4.471537e-01
4.511289e-01
4.546144e-01
4.575887e-01
4.600246e-01
4.619273e-01
4.631905e-01
4.641371e-01
4.635157e-01
4.717678e-01
4.890882e-01
5.052978e-01
5.216704e-01
5.378200e-01
5.538104e-01
5.695913e-01
5.851480e-01
6.004590e-01
6.155073e-01
6.302783e-01
6.447615e-01
6.589510e-01
6.728277e-01
6.863536e-01
6.994889e-01
7.121974e-01
7.244463e-01
7.362078e-01
7.474586e-01
7.581784e-01
7.683475e-01
7.779531e-01
7.869687e-01
7.954471e-01
8.037151e-01
8.119670e-01
8.201367e-01
8.281932e-01
8.361000e-01
8.438271e-01
8.513492e-01
8.586449e-01
8.656942e-01
8.724798e-01
8.789869e-01
8.852050e-01
8.911286e-01
8.967370e-01
9.019980e-01
9.068485e-01
9.113392e-01
9.151122e-01
9.193524e-01
9.195099e-01
9.324584e-01
8.951276e-01
1.042812e+00
4.973067e-01

CELL_DATA 200
SCALARS mat_id int 1
LOOKUP_TABLE default
1
1
1
1
1
1
1
1
1
1
1
1
1
1
1
1
1
1
1
1
1
1
1
1
1
1
1
1
1
1
1
1
1
1
1
1
1
1
1
1
1
1
1
1
1
1
1
1
1
1
1
1
1
1
1
1
1
1
1
1
1
1
1
1
1
1
1
1
1
1
1
1
1
1
1
1
1
1
1
1
1
1
1
1
1
1
1
1
1
1
1
1
1
1
1
1
1
1
1
1
2
2
2
2
2
2
2
2
2
2
2
2
2
2
2
2
2
2
2
2
2
2
2
2
2
2
2
2
2
2
2
2
2
2
2
2
2
2
2
2
2
2
2
2
2
2
2
2
2
2
2
2
2
2
2
2
2
2
2
2
2
2
2
2
2
2
2
2
2
2
2
2
2
2
2
2
2
2
2
2
2
2
2
2
2
2
2
2
2
2
2
2
2
2
2
2
2
2
2
2
