# vtk DataFile Version 2.0
step 21 time 8.750000e-02 normalized time 8.750000e-01, generated by simple.py
ASCII
DATASET UNSTRUCTURED_GRID

POINTS 201 float
0.000000e+00 0.000000e+00 0.000000e+00
1.000000e+00 0.000000e+00 0.000000e+00
2.000000e+00 0.000000e+00 0.000000e+00
1.000000e-02 0.000000e+00 0.000000e+00
2.000000e-02 0.000000e+00 0.000000e+00
3.000000e-02 0.000000e+00 0.000000e+00
4.000000e-02 0.000000e+00 0.000000e+00
5.000000e-02 0.000000e+00 0.000000e+00
6.000000e-02 0.000000e+00 0.000000e+00
7.000000e-02 0.000000e+00 0.000000e+00
8.000000e-02 0.000000e+00 0.000000e+00
9.000000e-02 0.000000e+00 0.000000e+00
1.000000e-01 0.000000e+00 0.000000e+00
1.100000e-01 0.000000e+00 0.000000e+00
1.200000e-01 0.000000e+00 0.000000e+00
1.300000e-01 0.000000e+00 0.000000e+00
1.400000e-01 0.000000e+00 0.000000e+00
1.500000e-01 0.000000e+00 0.000000e+00
1.600000e-01 0.000000e+00 0.000000e+00
1.700000e-01 0.000000e+00 0.000000e+00
1.800000e-01 0.000000e+00 0.000000e+00
1.900000e-01 0.000000e+00 0.000000e+00
2.000000e-01 0.000000e+00 0.000000e+00
2.100000e-01 0.000000e+00 0.000000e+00
2.200000e-01 0.000000e+00 0.000000e+00
2.300000e-01 0.000000e+00 0.000000e+00
2.400000e-01 0.000000e+00 0.000000e+00
2.500000e-01 0.000000e+00 0.000000e+00
2.600000e-01 0.000000e+00 0.000000e+00
2.700000e-01 0.000000e+00 0.000000e+00
2.800000e-01 0.000000e+00 0.000000e+00
2.900000e-01 0.000000e+00 0.000000e+00
3.000000e-01 0.000000e+00 0.000000e+00
3.100000e-01 0.000000e+00 0.000000e+00
3.200000e-01 0.000000e+00 0.000000e+00
3.300000e-01 0.000000e+00 0.000000e+00
3.400000e-01 0.000000e+00 0.000000e+00
3.500000e-01 0.000000e+00 0.000000e+00
3.600000e-01 0.000000e+00 0.000000e+00
3.700000e-01 0.000000e+00 0.000000e+00
3.800000e-01 0.000000e+00 0.000000e+00
3.900000e-01 0.000000e+00 0.000000e+00
4.000000e-01 0.000000e+00 0.000000e+00
4.100000e-01 0.000000e+00 0.000000e+00
4.200000e-01 0.000000e+00 0.000000e+00
4.300000e-01 0.000000e+00 0.000000e+00
4.400000e-01 0.000000e+00 0.000000e+00
4.500000e-01 0.000000e+00 0.000000e+00
4.600000e-01 0.000000e+00 0.000000e+00
4.700000e-01 0.000000e+00 0.000000e+00
4.800000e-01 0.000000e+00 0.000000e+00
4.900000e-01 0.000000e+00 0.000000e+00
5.000000e-01 0.000000e+00 0.000000e+00
5.100000e-01 0.000000e+00 0.000000e+00
5.200000e-01 0.000000e+00 0.000000e+00
5.300000e-01 0.000000e+00 0.000000e+00
5.400000e-01 0.000000e+00 0.000000e+00
5.500000e-01 0.000000e+00 0.000000e+00
5.600000e-01 0.000000e+00 0.000000e+00
5.700000e-01 0.000000e+00 0.000000e+00
5.800000e-01 0.000000e+00 0.000000e+00
5.900000e-01 0.000000e+00 0.000000e+00
6.000000e-01 0.000000e+00 0.000000e+00
6.100000e-01 0.000000e+00 0.000000e+00
6.200000e-01 0.000000e+00 0.000000e+00
6.300000e-01 0.000000e+00 0.000000e+00
6.400000e-01 0.000000e+00 0.000000e+00
6.500000e-01 0.000000e+00 0.000000e+00
6.600000e-01 0.000000e+00 0.000000e+00
6.700000e-01 0.000000e+00 0.000000e+00
6.800000e-01 0.000000e+00 0.000000e+00
6.900000e-01 0.000000e+00 0.000000e+00
7.000000e-01 0.000000e+00 0.000000e+00
7.100000e-01 0.000000e+00 0.000000e+00
7.200000e-01 0.000000e+00 0.000000e+00
7.300000e-01 0.000000e+00 0.000000e+00
7.400000e-01 0.000000e+00 0.000000e+00
7.500000e-01 0.000000e+00 0.000000e+00
7.600000e-01 0.000000e+00 0.000000e+00
7.700000e-01 0.000000e+00 0.000000e+00
7.800000e-01 0.000000e+00 0.000000e+00
7.900000e-01 0.000000e+00 0.000000e+00
8.000000e-01 0.000000e+00 0.000000e+00
8.100000e-01 0.000000e+00 0.000000e+00
8.200000e-01 0.000000e+00 0.000000e+00
8.300000e-01 0.000000e+00 0.000000e+00
8.400000e-01 0.000000e+00 0.000000e+00
8.500000e-01 0.000000e+00 0.000000e+00
8.600000e-01 0.000000e+00 0.000000e+00
8.700000e-01 0.000000e+00 0.000000e+00
8.800000e-01 0.000000e+00 0.000000e+00
8.900000e-01 0.000000e+00 0.000000e+00
9.000000e-01 0.000000e+00 0.000000e+00
9.100000e-01 0.000000e+00 0.000000e+00
9.200000e-01 0.000000e+00 0.000000e+00
9.300000e-01 0.000000e+00 0.000000e+00
9.400000e-01 0.000000e+00 0.000000e+00
9.500000e-01 0.000000e+00 0.000000e+00
9.600000e-01 0.000000e+00 0.000000e+00
9.700000e-01 0.000000e+00 0.000000e+00
9.800000e-01 0.000000e+00 0.000000e+00
9.900000e-01 0.000000e+00 0.000000e+00
1.010000e+00 0.000000e+00 0.000000e+00
1.020000e+00 0.000000e+00 0.000000e+00
1.030000e+00 0.000000e+00 0.000000e+00
1.040000e+00 0.000000e+00 0.000000e+00
1.050000e+00 0.000000e+00 0.000000e+00
1.060000e+00 0.000000e+00 0.000000e+00
1.070000e+00 0.000000e+00 0.000000e+00
1.080000e+00 0.000000e+00 0.000000e+00
1.090000e+00 0.000000e+00 0.000000e+00
1.100000e+00 0.000000e+00 0.000000e+00
1.110000e+00 0.000000e+00 0.000000e+00
1.120000e+00 0.000000e+00 0.000000e+00
1.130000e+00 0.000000e+00 0.000000e+00
1.140000e+00 0.000000e+00 0.000000e+00
1.150000e+00 0.000000e+00 0.000000e+00
1.160000e+00 0.000000e+00 0.000000e+00
1.170000e+00 0.000000e+00 0.000000e+00
1.180000e+00 0.000000e+00 0.000000e+00
1.190000e+00 0.000000e+00 0.000000e+00
1.200000e+00 0.000000e+00 0.000000e+00
1.210000e+00 0.000000e+00 0.000000e+00
1.220000e+00 0.000000e+00 0.000000e+00
1.230000e+00 0.000000e+00 0.000000e+00
1.240000e+00 0.000000e+00 0.000000e+00
1.250000e+00 0.000000e+00 0.000000e+00
1.260000e+00 0.000000e+00 0.000000e+00
1.270000e+00 0.000000e+00 0.000000e+00
1.280000e+00 0.000000e+00 0.000000e+00
1.290000e+00 0.000000e+00 0.000000e+00
1.300000e+00 0.000000e+00 0.000000e+00
1.310000e+00 0.000000e+00 0.000000e+00
1.320000e+00 0.000000e+00 0.000000e+00
1.330000e+00 0.000000e+00 0.000000e+00
1.340000e+00 0.000000e+00 0.000000e+00
1.350000e+00 0.000000e+00 0.000000e+00
1.360000e+00 0.000000e+00 0.000000e+00
1.370000e+00 0.000000e+00 0.000000e+00
1.380000e+00 0.000000e+00 0.000000e+00
1.390000e+00 0.000000e+00 0.000000e+00
1.400000e+00 0.000000e+00 0.000000e+00
1.410000e+00 0.000000e+00 0.000000e+00
1.420000e+00 0.000000e+00 0.000000e+00
1.430000e+00 0.000000e+00 0.000000e+00
1.440000e+00 0.000000e+00 0.000000e+00
1.450000e+00 0.000000e+00 0.000000e+00
1.460000e+00 0.000000e+00 0.000000e+00
1.470000e+00 0.000000e+00 0.000000e+00
1.480000e+00 0.000000e+00 0.000000e+00
1.490000e+00 0.000000e+00 0.000000e+00
1.500000e+00 0.000000e+00 0.000000e+00
1.510000e+00 0.000000e+00 0.000000e+00
1.520000e+00 0.000000e+00 0.000000e+00
1.530000e+00 0.000000e+00 0.000000e+00
1.540000e+00 0.000000e+00 0.000000e+00
1.550000e+00 0.000000e+00 0.000000e+00
1.560000e+00 0.000000e+00 0.000000e+00
1.570000e+00 0.000000e+00 0.000000e+00
1.580000e+00 0.000000e+00 0.000000e+00
1.590000e+00 0.000000e+00 0.000000e+00
1.600000e+00 0.000000e+00 0.000000e+00
1.610000e+00 0.000000e+00 0.000000e+00
1.620000e+00 0.000000e+00 0.000000e+00
1.630000e+00 0.000000e+00 0.000000e+00
1.640000e+00 0.000000e+00 0.000000e+00
1.650000e+00 0.000000e+00 0.000000e+00
1.660000e+00 0.000000e+00 0.000000e+00
1.670000e+00 0.000000e+00 0.000000e+00
1.680000e+00 0.000000e+00 0.000000e+00
1.690000e+00 0.000000e+00 0.000000e+00
1.700000e+00 0.000000e+00 0.000000e+00
1.710000e+00 0.000000e+00 0.000000e+00
1.720000e+00 0.000000e+00 0.000000e+00
1.730000e+00 0.000000e+00 0.000000e+00
1.740000e+00 0.000000e+00 0.000000e+00
1.750000e+00 0.000000e+00 0.000000e+00
1.760000e+00 0.000000e+00 0.000000e+00
1.770000e+00 0.000000e+00 0.000000e+00
1.780000e+00 0.000000e+00 0.000000e+00
1.790000e+00 0.000000e+00 0.000000e+00
1.800000e+00 0.000000e+00 0.000000e+00
1.810000e+00 0.000000e+00 0.000000e+00
1.820000e+00 0.000000e+00 0.000000e+00
1.830000e+00 0.000000e+00 0.000000e+00
1.840000e+00 0.000000e+00 0.000000e+00
1.850000e+00 0.000000e+00 0.000000e+00
1.860000e+00 0.000000e+00 0.000000e+00
1.870000e+00 0.000000e+00 0.000000e+00
1.880000e+00 0.000000e+00 0.000000e+00
1.890000e+00 0.000000e+00 0.000000e+00
1.900000e+00 0.000000e+00 0.000000e+00
1.910000e+00 0.000000e+00 0.000000e+00
1.920000e+00 0.000000e+00 0.000000e+00
1.930000e+00 0.000000e+00 0.000000e+00
1.940000e+00 0.000000e+00 0.000000e+00
1.950000e+00 0.000000e+00 0.000000e+00
1.960000e+00 0.000000e+00 0.000000e+00
1.970000e+00 0.000000e+00 0.000000e+00
1.980000e+00 0.000000e+00 0.000000e+00
1.990000e+00 0.000000e+00 0.000000e+00

CELLS 200 600
2 0 3 
2 3 4 
2 4 5 
2 5 6 
2 6 7 
2 7 8 
2 8 9 
2 9 10 
2 10 11 
2 11 12 
2 12 13 
2 13 14 
2 14 15 
2 15 16 
2 16 17 
2 17 18 
2 18 19 
2 19 20 
2 20 21 
2 21 22 
2 22 23 
2 23 24 
2 24 25 
2 25 26 
2 26 27 
2 27 28 
2 28 29 
2 29 30 
2 30 31 
2 31 32 
2 32 33 
2 33 34 
2 34 35 
2 35 36 
2 36 37 
2 37 38 
2 38 39 
2 39 40 
2 40 41 
2 41 42 
2 42 43 
2 43 44 
2 44 45 
2 45 46 
2 46 47 
2 47 48 
2 48 49 
2 49 50 
2 50 51 
2 51 52 
2 52 53 
2 53 54 
2 54 55 
2 55 56 
2 56 57 
2 57 58 
2 58 59 
2 59 60 
2 60 61 
2 61 62 
2 62 63 
2 63 64 
2 64 65 
2 65 66 
2 66 67 
2 67 68 
2 68 69 
2 69 70 
2 70 71 
2 71 72 
2 72 73 
2 73 74 
2 74 75 
2 75 76 
2 76 77 
2 77 78 
2 78 79 
2 79 80 
2 80 81 
2 81 82 
2 82 83 
2 83 84 
2 84 85 
2 85 86 
2 86 87 
2 87 88 
2 88 89 
2 89 90 
2 90 91 
2 91 92 
2 92 93 
2 93 94 
2 94 95 
2 95 96 
2 96 97 
2 97 98 
2 98 99 
2 99 100 
2 100 101 
2 101 1 
2 1 102 
2 102 103 
2 103 104 
2 104 105 
2 105 106 
2 106 107 
2 107 108 
2 108 109 
2 109 110 
2 110 111 
2 111 112 
2 112 113 
2 113 114 
2 114 115 
2 115 116 
2 116 117 
2 117 118 
2 118 119 
2 119 120 
2 120 121 
2 121 122 
2 122 123 
2 123 124 
2 124 125 
2 125 126 
2 126 127 
2 127 128 
2 128 129 
2 129 130 
2 130 131 
2 131 132 
2 132 133 
2 133 134 
2 134 135 
2 135 136 
2 136 137 
2 137 138 
2 138 139 
2 139 140 
2 140 141 
2 141 142 
2 142 143 
2 143 144 
2 144 145 
2 145 146 
2 146 147 
2 147 148 
2 148 149 
2 149 150 
2 150 151 
2 151 152 
2 152 153 
2 153 154 
2 154 155 
2 155 156 
2 156 157 
2 157 158 
2 158 159 
2 159 160 
2 160 161 
2 161 162 
2 162 163 
2 163 164 
2 164 165 
2 165 166 
2 166 167 
2 167 168 
2 168 169 
2 169 170 
2 170 171 
2 171 172 
2 172 173 
2 173 174 
2 174 175 
2 175 176 
2 176 177 
2 177 178 
2 178 179 
2 179 180 
2 180 181 
2 181 182 
2 182 183 
2 183 184 
2 184 185 
2 185 186 
2 186 187 
2 187 188 
2 188 189 
2 189 190 
2 190 191 
2 191 192 
2 192 193 
2 193 194 
2 194 195 
2 195 196 
2 196 197 
2 197 198 
2 198 199 
2 199 200 
2 200 2 

CELL_TYPES 200
3
3
3
3
3
3
3
3
3
3
3
3
3
3
3
3
3
3
3
3
3
3
3
3
3
3
3
3
3
3
3
3
3
3
3
3
3
3
3
3
3
3
3
3
3
3
3
3
3
3
3
3
3
3
3
3
3
3
3
3
3
3
3
3
3
3
3
3
3
3
3
3
3
3
3
3
3
3
3
3
3
3
3
3
3
3
3
3
3
3
3
3
3
3
3
3
3
3
3
3
3
3
3
3
3
3
3
3
3
3
3
3
3
3
3
3
3
3
3
3
3
3
3
3
3
3
3
3
3
3
3
3
3
3
3
3
3
3
3
3
3
3
3
3
3
3
3
3
3
3
3
3
3
3
3
3
3
3
3
3
3
3
3
3
3
3
3
3
3
3
3
3
3
3
3
3
3
3
3
3
3
3
3
3
3
3
3
3
3
3
3
3
3
3
3
3
3
3
3
3

POINT_DATA 201

SCALARS node_groups int 1
LOOKUP_TABLE default
1
2
3
1
1
1
1
1
1
1
1
1
1
1
1
1
1
1
1
1
1
1
1
1
1
1
1
1
1
1
1
1
1
1
1
1
1
1
1
1
1
1
1
1
1
1
1
1
1
1
1
1
1
1
1
1
1
1
1
1
1
1
1
1
1
1
1
1
1
1
1
1
1
1
1
1
1
1
1
1
1
1
1
1
1
1
1
1
1
1
1
1
1
1
1
1
1
1
1
1
1
1
2
2
2
2
2
2
2
2
2
2
2
2
2
2
2
2
2
2
2
2
2
2
2
2
2
2
2
2
2
2
2
2
2
2
2
2
2
2
2
2
2
2
2
2
2
2
2
2
2
2
2
2
2
2
2
2
2
2
2
2
2
2
2
2
2
2
2
2
2
2
2
2
2
2
2
2
2
2
2
2
2
2
2
2
2
2
2
2
2
2
2
2
2
2
2
2
2
2
2

SCALARS phil float 1
LOOKUP_TABLE default
0.000000e+00
-3.140519e-02
-4.916054e-02
-3.140519e-04
-6.281038e-04
-9.421557e-04
-1.256208e-03
-1.570260e-03
-1.884311e-03
-2.198363e-03
-2.512415e-03
-2.826467e-03
-3.140519e-03
-3.454571e-03
-3.768623e-03
-4.082675e-03
-4.396727e-03
-4.710779e-03
-5.024830e-03
-5.338882e-03
-5.652934e-03
-5.966986e-03
-6.281038e-03
-6.595090e-03
-6.909142e-03
-7.223194e-03
-7.537246e-03
-7.851298e-03
-8.165349e-03
-8.479401e-03
-8.793453e-03
-9.107505e-03
-9.421557e-03
-9.735609e-03
-1.004966e-02
-1.036371e-02
-1.067776e-02
-1.099182e-02
-1.130587e-02
-1.161992e-02
-1.193397e-02
-1.224802e-02
-1.256208e-02
-1.287613e-02
-1.319018e-02
-1.350423e-02
-1.381828e-02
-1.413234e-02
-1.444639e-02
-1.476044e-02
-1.507449e-02
-1.538854e-02
-1.570260e-02
-1.601665e-02
-1.633070e-02
-1.664475e-02
-1.695880e-02
-1.727285e-02
-1.758691e-02
-1.790096e-02
-1.821501e-02
-1.852906e-02
-1.884311e-02
-1.915717e-02
-1.947122e-02
-1.978527e-02
-2.009932e-02
-2.041337e-02
-2.072743e-02
-2.104148e-02
-2.135553e-02
-2.166958e-02
-2.198363e-02
-2.229768e-02
-2.261174e-02
-2.292579e-02
-2.323984e-02
-2.355389e-02
-2.386794e-02
-2.418200e-02
-2.449605e-02
-2.481010e-02
-2.512415e-02
-2.543820e-02
-2.575226e-02
-2.606631e-02
-2.638036e-02
-2.669441e-02
-2.700846e-02
-2.732252e-02
-2.763657e-02
-2.795062e-02
-2.826467e-02
-2.857872e-02
-2.889277e-02
-2.920683e-02
-2.952088e-02
-2.983493e-02
-3.014898e-02
-3.046303e-02
-3.077709e-02
-3.109114e-02
-3.171921e-02
-3.203308e-02
-3.234664e-02
-3.265972e-02
-3.297220e-02
-3.328390e-02
-3.359471e-02
-3.390447e-02
-3.421306e-02
-3.452036e-02
-3.482626e-02
-3.513064e-02
-3.543341e-02
-3.573450e-02
-3.603380e-02
-3.633125e-02
-3.662678e-02
-3.692031e-02
-3.721178e-02
-3.750114e-02
-3.778833e-02
-3.807333e-02
-3.835598e-02
-3.863515e-02
-3.891057e-02
-3.918223e-02
-3.945001e-02
-3.971377e-02
-3.997337e-02
-4.022867e-02
-4.047954e-02
-4.072586e-02
-4.096752e-02
-4.120440e-02
-4.143641e-02
-4.166346e-02
-4.188546e-02
-4.210233e-02
-4.231401e-02
-4.252044e-02
-4.272158e-02
-4.291738e-02
-4.310779e-02
-4.329279e-02
-4.347232e-02
-4.364638e-02
-4.381492e-02
-4.397795e-02
-4.413545e-02
-4.428742e-02
-4.443661e-02
-4.458564e-02
-4.473433e-02
-4.488253e-02
-4.503008e-02
-4.517683e-02
-4.532262e-02
-4.546732e-02
-4.561078e-02
-4.575289e-02
-4.589353e-02
-4.603258e-02
-4.616995e-02
-4.630555e-02
-4.643930e-02
-4.657112e-02
-4.670094e-02
-4.682868e-02
-4.695428e-02
-4.707768e-02
-4.719882e-02
-4.731766e-02
-4.743414e-02
-4.754796e-02
-4.765903e-02
-4.776730e-02
-4.787264e-02
-4.797486e-02
-4.807381e-02
-4.816930e-02
-4.826119e-02
-4.834931e-02
-4.843351e-02
-4.851366e-02
-4.858961e-02
-4.866124e-02
-4.872843e-02
-4.879108e-02
-4.884908e-02
-4.890235e-02
-4.895082e-02
-4.899441e-02
-4.903305e-02
-4.906668e-02
-4.909525e-02
-4.911869e-02
-4.913698e-02
-4.915006e-02
-4.915792e-02

SCALARS phis float 1
LOOKUP_TABLE default
7.000000e-01
7.091497e-01
7.000000e-01
7.000000e-01
7.000000e-01
7.000000e-01
7.000000e-01
7.000000e-01
7.000000e-01
7.000000e-01
7.000000e-01
7.000000e-01
7.000000e-01
7.000000e-01
7.000000e-01
7.000000e-01
7.000000e-01
7.000000e-01
7.000000e-01
7.000000e-01
7.000000e-01
7.000000e-01
7.000000e-01
7.000000e-01
7.000000e-01
7.000000e-01
7.000000e-01
7.000000e-01
7.000000e-01
7.000000e-01
7.000000e-01
7.000000e-01
7.000000e-01
7.000000e-01
7.000000e-01
7.000000e-01
7.000000e-01
7.000000e-01
7.000000e-01
7.000000e-01
7.000000e-01
7.000000e-01
7.000000e-01
7.000000e-01
7.000000e-01
7.000000e-01
7.000000e-01
7.000000e-01
7.000000e-01
7.000000e-01
7.000000e-01
7.000000e-01
7.000000e-01
7.000000e-01
7.000000e-01
7.000000e-01
7.000000e-01
7.000000e-01
7.000000e-01
7.000000e-01
7.000000e-01
7.000000e-01
7.000000e-01
7.000000e-01
7.000000e-01
7.000000e-01
7.000000e-01
7.000000e-01
7.000000e-01
7.000000e-01
7.000000e-01
7.000000e-01
7.000000e-01
7.000000e-01
7.000000e-01
7.000000e-01
7.000000e-01
7.000000e-01
7.000000e-01
7.000000e-01
7.000000e-01
7.000000e-01
7.000000e-01
7.000000e-01
7.000000e-01
7.000000e-01
7.000000e-01
7.000000e-01
7.000000e-01
7.000000e-01
7.000000e-01
7.000000e-01
7.000000e-01
7.000000e-01
7.000000e-01
7.000000e-01
7.000000e-01
7.000000e-01
7.000000e-01
7.000000e-01
7.000000e-01
7.000000e-01
7.091494e-01
7.091465e-01
7.091407e-01
7.091320e-01
7.091204e-01
7.091061e-01
7.090889e-01
7.090690e-01
7.090463e-01
7.090210e-01
7.089930e-01
7.089625e-01
7.089295e-01
7.088939e-01
7.088560e-01
7.088157e-01
7.087732e-01
7.087284e-01
7.086816e-01
7.086327e-01
7.085819e-01
7.085292e-01
7.084748e-01
7.084188e-01
7.083613e-01
7.083022e-01
7.082417e-01
7.081798e-01
7.081165e-01
7.080517e-01
7.079856e-01
7.079181e-01
7.078494e-01
7.077794e-01
7.077081e-01
7.076357e-01
7.075622e-01
7.074876e-01
7.074120e-01
7.073354e-01
7.072580e-01
7.071797e-01
7.071007e-01
7.070210e-01
7.069408e-01
7.068600e-01
7.067789e-01
7.066976e-01
7.066160e-01
7.065344e-01
7.064524e-01
7.063679e-01
7.062804e-01
7.061901e-01
7.060969e-01
7.060008e-01
7.059020e-01
7.058004e-01
7.056962e-01
7.055892e-01
7.054796e-01
7.053674e-01
7.052527e-01
7.051356e-01
7.050160e-01
7.048941e-01
7.047699e-01
7.046435e-01
7.045150e-01
7.043844e-01
7.042520e-01
7.041177e-01
7.039816e-01
7.038440e-01
7.037048e-01
7.035641e-01
7.034220e-01
7.032784e-01
7.031334e-01
7.029870e-01
7.028392e-01
7.026901e-01
7.025397e-01
7.023880e-01
7.022352e-01
7.020811e-01
7.019259e-01
7.017697e-01
7.016124e-01
7.014542e-01
7.012951e-01
7.011352e-01
7.009745e-01
7.008132e-01
7.006513e-01
7.004890e-01
7.003262e-01
7.001632e-01
7.000000e-01

SCALARS il float 1
LOOKUP_TABLE default
-3.140519e-02
-3.140510e-02
-1.514480e-04
-3.140519e-02
-3.140519e-02
-3.140519e-02
-3.140519e-02
-3.140519e-02
-3.140519e-02
-3.140519e-02
-3.140519e-02
-3.140519e-02
-3.140519e-02
-3.140519e-02
-3.140519e-02
-3.140519e-02
-3.140519e-02
-3.140519e-02
-3.140519e-02
-3.140519e-02
-3.140519e-02
-3.140519e-02
-3.140519e-02
-3.140519e-02
-3.140519e-02
-3.140519e-02
-3.140519e-02
-3.140519e-02
-3.140519e-02
-3.140519e-02
-3.140519e-02
-3.140519e-02
-3.140519e-02
-3.140519e-02
-3.140519e-02
-3.140519e-02
-3.140519e-02
-3.140519e-02
-3.140519e-02
-3.140519e-02
-3.140519e-02
-3.140519e-02
-3.140519e-02
-3.140519e-02
-3.140519e-02
-3.140519e-02
-3.140519e-02
-3.140519e-02
-3.140519e-02
-3.140519e-02
-3.140519e-02
-3.140519e-02
-3.140519e-02
-3.140519e-02
-3.140519e-02
-3.140519e-02
-3.140519e-02
-3.140519e-02
-3.140519e-02
-3.140519e-02
-3.140519e-02
-3.140519e-02
-3.140519e-02
-3.140519e-02
-3.140519e-02
-3.140519e-02
-3.140519e-02
-3.140519e-02
-3.140519e-02
-3.140519e-02
-3.140519e-02
-3.140519e-02
-3.140519e-02
-3.140519e-02
-3.140519e-02
-3.140519e-02
-3.140519e-02
-3.140519e-02
-3.140519e-02
-3.140519e-02
-3.140519e-02
-3.140519e-02
-3.140519e-02
-3.140519e-02
-3.140519e-02
-3.140519e-02
-3.140519e-02
-3.140519e-02
-3.140519e-02
-3.140519e-02
-3.140519e-02
-3.140519e-02
-3.140519e-02
-3.140519e-02
-3.140519e-02
-3.140519e-02
-3.140519e-02
-3.140519e-02
-3.140519e-02
-3.140519e-02
-3.140518e-02
-3.140521e-02
-3.139715e-02
-3.137369e-02
-3.133468e-02
-3.128046e-02
-3.121138e-02
-3.112790e-02
-3.103054e-02
-3.091989e-02
-3.079663e-02
-3.066153e-02
-3.051546e-02
-3.035937e-02
-3.019421e-02
-3.002060e-02
-2.983904e-02
-2.964998e-02
-2.945381e-02
-2.925112e-02
-2.904228e-02
-2.882891e-02
-2.860853e-02
-2.839511e-02
-2.810572e-02
-2.772869e-02
-2.735461e-02
-2.697484e-02
-2.657978e-02
-2.617020e-02
-2.574687e-02
-2.531044e-02
-2.486154e-02
-2.440082e-02
-2.392892e-02
-2.344653e-02
-2.295443e-02
-2.245346e-02
-2.194459e-02
-2.142873e-02
-2.090660e-02
-2.037926e-02
-1.984745e-02
-1.931126e-02
-1.877100e-02
-1.822713e-02
-1.767991e-02
-1.713078e-02
-1.657731e-02
-1.603195e-02
-1.545224e-02
-1.500119e-02
-1.489195e-02
-1.489421e-02
-1.484583e-02
-1.479059e-02
-1.471723e-02
-1.462939e-02
-1.452683e-02
-1.441042e-02
-1.428087e-02
-1.413905e-02
-1.398592e-02
-1.382255e-02
-1.365000e-02
-1.346896e-02
-1.327987e-02
-1.308313e-02
-1.287905e-02
-1.266812e-02
-1.245083e-02
-1.222803e-02
-1.199965e-02
-1.176974e-02
-1.151882e-02
-1.124426e-02
-1.096833e-02
-1.068340e-02
-1.038103e-02
-1.006135e-02
-9.724790e-03
-9.371801e-03
-9.002911e-03
-8.618708e-03
-8.219832e-03
-7.807004e-03
-7.381051e-03
-6.942885e-03
-6.493543e-03
-6.034046e-03
-5.565204e-03
-5.088224e-03
-4.603967e-03
-4.112669e-03
-3.614742e-03
-3.110821e-03
-2.601088e-03
-2.087830e-03
-1.565918e-03
-1.058447e-03
-4.837307e-04

SCALARS is float 1
LOOKUP_TABLE default
-4.374012e-02
-2.250720e-04
-4.374012e-02
-4.374012e-02
-4.374012e-02
-4.374012e-02
-4.374012e-02
-4.374012e-02
-4.374012e-02
-4.374012e-02
-4.374012e-02
-4.374012e-02
-4.374012e-02
-4.374012e-02
-4.374012e-02
-4.374012e-02
-4.374012e-02
-4.374012e-02
-4.374012e-02
-4.374012e-02
-4.374012e-02
-4.374012e-02
-4.374012e-02
-4.374012e-02
-4.374012e-02
-4.374012e-02
-4.374012e-02
-4.374012e-02
-4.374012e-02
-4.374012e-02
-4.374012e-02
-4.374012e-02
-4.374012e-02
-4.374012e-02
-4.374012e-02
-4.374012e-02
-4.374012e-02
-4.374012e-02
-4.374012e-02
-4.374012e-02
-4.374012e-02
-4.374012e-02
-4.374012e-02
-4.374012e-02
-4.374012e-02
-4.374012e-02
-4.374012e-02
-4.374012e-02
-4.374012e-02
-4.374012e-02
-4.374012e-02
-4.374012e-02
-4.374012e-02
-4.374012e-02
-4.374012e-02
-4.374012e-02
-4.374012e-02
-4.374012e-02
-4.374012e-02
-4.374012e-02
-4.374012e-02
-4.374012e-02
-4.374012e-02
-4.374012e-02
-4.374012e-02
-4.374012e-02
-4.374012e-02
-4.374012e-02
-4.374012e-02
-4.374012e-02
-4.374012e-02
-4.374012e-02
-4.374012e-02
-4.374012e-02
-4.374012e-02
-4.374012e-02
-4.374012e-02
-4.374012e-02
-4.374012e-02
-4.374012e-02
-4.374012e-02
-4.374012e-02
-4.374012e-02
-4.374012e-02
-4.374012e-02
-4.374012e-02
-4.374012e-02
-4.374012e-02
-4.374012e-02
-4.374012e-02
-4.374012e-02
-4.374012e-02
-4.374012e-02
-4.374012e-02
-4.374012e-02
-4.374012e-02
-4.374012e-02
-4.374012e-02
-4.374012e-02
-4.374012e-02
-4.374012e-02
-4.374012e-02
1.372831e-03
4.382468e-03
7.246042e-03
1.012508e-02
1.296842e-02
1.578281e-02
1.856059e-02
2.129885e-02
2.399391e-02
2.664275e-02
2.924278e-02
3.179218e-02
3.428991e-02
3.673260e-02
3.911346e-02
4.142544e-02
4.366207e-02
4.581753e-02
4.788686e-02
4.986596e-02
5.175123e-02
5.353915e-02
5.522750e-02
5.681161e-02
5.830079e-02
5.975282e-02
6.120207e-02
6.263694e-02
6.405199e-02
6.544082e-02
6.679818e-02
6.811963e-02
6.940140e-02
7.064004e-02
7.183247e-02
7.297612e-02
7.406917e-02
7.511057e-02
7.609697e-02
7.702156e-02
7.787731e-02
7.865775e-02
7.935708e-02
7.997026e-02
8.049350e-02
8.092203e-02
8.125675e-02
8.147895e-02
8.164547e-02
8.153608e-02
8.298854e-02
8.603714e-02
8.889028e-02
9.177211e-02
9.461470e-02
9.742929e-02
1.002070e-01
1.029453e-01
1.056404e-01
1.082892e-01
1.108892e-01
1.134386e-01
1.159364e-01
1.183790e-01
1.207599e-01
1.230719e-01
1.253085e-01
1.274640e-01
1.295333e-01
1.315124e-01
1.333977e-01
1.351856e-01
1.368739e-01
1.384580e-01
1.399472e-01
1.413993e-01
1.428485e-01
1.442834e-01
1.456984e-01
1.470873e-01
1.484446e-01
1.497661e-01
1.510478e-01
1.522865e-01
1.534789e-01
1.546226e-01
1.557156e-01
1.567571e-01
1.577433e-01
1.586685e-01
1.595217e-01
1.603117e-01
1.609755e-01
1.617214e-01
1.617492e-01
1.640269e-01
1.574602e-01
1.834391e-01
8.748025e-02

CELL_DATA 200
SCALARS mat_id int 1
LOOKUP_TABLE default
1
1
1
1
1
1
1
1
1
1
1
1
1
1
1
1
1
1
1
1
1
1
1
1
1
1
1
1
1
1
1
1
1
1
1
1
1
1
1
1
1
1
1
1
1
1
1
1
1
1
1
1
1
1
1
1
1
1
1
1
1
1
1
1
1
1
1
1
1
1
1
1
1
1
1
1
1
1
1
1
1
1
1
1
1
1
1
1
1
1
1
1
1
1
1
1
1
1
1
1
2
2
2
2
2
2
2
2
2
2
2
2
2
2
2
2
2
2
2
2
2
2
2
2
2
2
2
2
2
2
2
2
2
2
2
2
2
2
2
2
2
2
2
2
2
2
2
2
2
2
2
2
2
2
2
2
2
2
2
2
2
2
2
2
2
2
2
2
2
2
2
2
2
2
2
2
2
2
2
2
2
2
2
2
2
2
2
2
2
2
2
2
2
2
2
2
2
2
2
2
