# vtk DataFile Version 2.0
step 12 time 5.000000e-02 normalized time 5.000000e-01, generated by simple.py
ASCII
DATASET UNSTRUCTURED_GRID

POINTS 201 float
0.000000e+00 0.000000e+00 0.000000e+00
1.000000e+00 0.000000e+00 0.000000e+00
2.000000e+00 0.000000e+00 0.000000e+00
1.000000e-02 0.000000e+00 0.000000e+00
2.000000e-02 0.000000e+00 0.000000e+00
3.000000e-02 0.000000e+00 0.000000e+00
4.000000e-02 0.000000e+00 0.000000e+00
5.000000e-02 0.000000e+00 0.000000e+00
6.000000e-02 0.000000e+00 0.000000e+00
7.000000e-02 0.000000e+00 0.000000e+00
8.000000e-02 0.000000e+00 0.000000e+00
9.000000e-02 0.000000e+00 0.000000e+00
1.000000e-01 0.000000e+00 0.000000e+00
1.100000e-01 0.000000e+00 0.000000e+00
1.200000e-01 0.000000e+00 0.000000e+00
1.300000e-01 0.000000e+00 0.000000e+00
1.400000e-01 0.000000e+00 0.000000e+00
1.500000e-01 0.000000e+00 0.000000e+00
1.600000e-01 0.000000e+00 0.000000e+00
1.700000e-01 0.000000e+00 0.000000e+00
1.800000e-01 0.000000e+00 0.000000e+00
1.900000e-01 0.000000e+00 0.000000e+00
2.000000e-01 0.000000e+00 0.000000e+00
2.100000e-01 0.000000e+00 0.000000e+00
2.200000e-01 0.000000e+00 0.000000e+00
2.300000e-01 0.000000e+00 0.000000e+00
2.400000e-01 0.000000e+00 0.000000e+00
2.500000e-01 0.000000e+00 0.000000e+00
2.600000e-01 0.000000e+00 0.000000e+00
2.700000e-01 0.000000e+00 0.000000e+00
2.800000e-01 0.000000e+00 0.000000e+00
2.900000e-01 0.000000e+00 0.000000e+00
3.000000e-01 0.000000e+00 0.000000e+00
3.100000e-01 0.000000e+00 0.000000e+00
3.200000e-01 0.000000e+00 0.000000e+00
3.300000e-01 0.000000e+00 0.000000e+00
3.400000e-01 0.000000e+00 0.000000e+00
3.500000e-01 0.000000e+00 0.000000e+00
3.600000e-01 0.000000e+00 0.000000e+00
3.700000e-01 0.000000e+00 0.000000e+00
3.800000e-01 0.000000e+00 0.000000e+00
3.900000e-01 0.000000e+00 0.000000e+00
4.000000e-01 0.000000e+00 0.000000e+00
4.100000e-01 0.000000e+00 0.000000e+00
4.200000e-01 0.000000e+00 0.000000e+00
4.300000e-01 0.000000e+00 0.000000e+00
4.400000e-01 0.000000e+00 0.000000e+00
4.500000e-01 0.000000e+00 0.000000e+00
4.600000e-01 0.000000e+00 0.000000e+00
4.700000e-01 0.000000e+00 0.000000e+00
4.800000e-01 0.000000e+00 0.000000e+00
4.900000e-01 0.000000e+00 0.000000e+00
5.000000e-01 0.000000e+00 0.000000e+00
5.100000e-01 0.000000e+00 0.000000e+00
5.200000e-01 0.000000e+00 0.000000e+00
5.300000e-01 0.000000e+00 0.000000e+00
5.400000e-01 0.000000e+00 0.000000e+00
5.500000e-01 0.000000e+00 0.000000e+00
5.600000e-01 0.000000e+00 0.000000e+00
5.700000e-01 0.000000e+00 0.000000e+00
5.800000e-01 0.000000e+00 0.000000e+00
5.900000e-01 0.000000e+00 0.000000e+00
6.000000e-01 0.000000e+00 0.000000e+00
6.100000e-01 0.000000e+00 0.000000e+00
6.200000e-01 0.000000e+00 0.000000e+00
6.300000e-01 0.000000e+00 0.000000e+00
6.400000e-01 0.000000e+00 0.000000e+00
6.500000e-01 0.000000e+00 0.000000e+00
6.600000e-01 0.000000e+00 0.000000e+00
6.700000e-01 0.000000e+00 0.000000e+00
6.800000e-01 0.000000e+00 0.000000e+00
6.900000e-01 0.000000e+00 0.000000e+00
7.000000e-01 0.000000e+00 0.000000e+00
7.100000e-01 0.000000e+00 0.000000e+00
7.200000e-01 0.000000e+00 0.000000e+00
7.300000e-01 0.000000e+00 0.000000e+00
7.400000e-01 0.000000e+00 0.000000e+00
7.500000e-01 0.000000e+00 0.000000e+00
7.600000e-01 0.000000e+00 0.000000e+00
7.700000e-01 0.000000e+00 0.000000e+00
7.800000e-01 0.000000e+00 0.000000e+00
7.900000e-01 0.000000e+00 0.000000e+00
8.000000e-01 0.000000e+00 0.000000e+00
8.100000e-01 0.000000e+00 0.000000e+00
8.200000e-01 0.000000e+00 0.000000e+00
8.300000e-01 0.000000e+00 0.000000e+00
8.400000e-01 0.000000e+00 0.000000e+00
8.500000e-01 0.000000e+00 0.000000e+00
8.600000e-01 0.000000e+00 0.000000e+00
8.700000e-01 0.000000e+00 0.000000e+00
8.800000e-01 0.000000e+00 0.000000e+00
8.900000e-01 0.000000e+00 0.000000e+00
9.000000e-01 0.000000e+00 0.000000e+00
9.100000e-01 0.000000e+00 0.000000e+00
9.200000e-01 0.000000e+00 0.000000e+00
9.300000e-01 0.000000e+00 0.000000e+00
9.400000e-01 0.000000e+00 0.000000e+00
9.500000e-01 0.000000e+00 0.000000e+00
9.600000e-01 0.000000e+00 0.000000e+00
9.700000e-01 0.000000e+00 0.000000e+00
9.800000e-01 0.000000e+00 0.000000e+00
9.900000e-01 0.000000e+00 0.000000e+00
1.010000e+00 0.000000e+00 0.000000e+00
1.020000e+00 0.000000e+00 0.000000e+00
1.030000e+00 0.000000e+00 0.000000e+00
1.040000e+00 0.000000e+00 0.000000e+00
1.050000e+00 0.000000e+00 0.000000e+00
1.060000e+00 0.000000e+00 0.000000e+00
1.070000e+00 0.000000e+00 0.000000e+00
1.080000e+00 0.000000e+00 0.000000e+00
1.090000e+00 0.000000e+00 0.000000e+00
1.100000e+00 0.000000e+00 0.000000e+00
1.110000e+00 0.000000e+00 0.000000e+00
1.120000e+00 0.000000e+00 0.000000e+00
1.130000e+00 0.000000e+00 0.000000e+00
1.140000e+00 0.000000e+00 0.000000e+00
1.150000e+00 0.000000e+00 0.000000e+00
1.160000e+00 0.000000e+00 0.000000e+00
1.170000e+00 0.000000e+00 0.000000e+00
1.180000e+00 0.000000e+00 0.000000e+00
1.190000e+00 0.000000e+00 0.000000e+00
1.200000e+00 0.000000e+00 0.000000e+00
1.210000e+00 0.000000e+00 0.000000e+00
1.220000e+00 0.000000e+00 0.000000e+00
1.230000e+00 0.000000e+00 0.000000e+00
1.240000e+00 0.000000e+00 0.000000e+00
1.250000e+00 0.000000e+00 0.000000e+00
1.260000e+00 0.000000e+00 0.000000e+00
1.270000e+00 0.000000e+00 0.000000e+00
1.280000e+00 0.000000e+00 0.000000e+00
1.290000e+00 0.000000e+00 0.000000e+00
1.300000e+00 0.000000e+00 0.000000e+00
1.310000e+00 0.000000e+00 0.000000e+00
1.320000e+00 0.000000e+00 0.000000e+00
1.330000e+00 0.000000e+00 0.000000e+00
1.340000e+00 0.000000e+00 0.000000e+00
1.350000e+00 0.000000e+00 0.000000e+00
1.360000e+00 0.000000e+00 0.000000e+00
1.370000e+00 0.000000e+00 0.000000e+00
1.380000e+00 0.000000e+00 0.000000e+00
1.390000e+00 0.000000e+00 0.000000e+00
1.400000e+00 0.000000e+00 0.000000e+00
1.410000e+00 0.000000e+00 0.000000e+00
1.420000e+00 0.000000e+00 0.000000e+00
1.430000e+00 0.000000e+00 0.000000e+00
1.440000e+00 0.000000e+00 0.000000e+00
1.450000e+00 0.000000e+00 0.000000e+00
1.460000e+00 0.000000e+00 0.000000e+00
1.470000e+00 0.000000e+00 0.000000e+00
1.480000e+00 0.000000e+00 0.000000e+00
1.490000e+00 0.000000e+00 0.000000e+00
1.500000e+00 0.000000e+00 0.000000e+00
1.510000e+00 0.000000e+00 0.000000e+00
1.520000e+00 0.000000e+00 0.000000e+00
1.530000e+00 0.000000e+00 0.000000e+00
1.540000e+00 0.000000e+00 0.000000e+00
1.550000e+00 0.000000e+00 0.000000e+00
1.560000e+00 0.000000e+00 0.000000e+00
1.570000e+00 0.000000e+00 0.000000e+00
1.580000e+00 0.000000e+00 0.000000e+00
1.590000e+00 0.000000e+00 0.000000e+00
1.600000e+00 0.000000e+00 0.000000e+00
1.610000e+00 0.000000e+00 0.000000e+00
1.620000e+00 0.000000e+00 0.000000e+00
1.630000e+00 0.000000e+00 0.000000e+00
1.640000e+00 0.000000e+00 0.000000e+00
1.650000e+00 0.000000e+00 0.000000e+00
1.660000e+00 0.000000e+00 0.000000e+00
1.670000e+00 0.000000e+00 0.000000e+00
1.680000e+00 0.000000e+00 0.000000e+00
1.690000e+00 0.000000e+00 0.000000e+00
1.700000e+00 0.000000e+00 0.000000e+00
1.710000e+00 0.000000e+00 0.000000e+00
1.720000e+00 0.000000e+00 0.000000e+00
1.730000e+00 0.000000e+00 0.000000e+00
1.740000e+00 0.000000e+00 0.000000e+00
1.750000e+00 0.000000e+00 0.000000e+00
1.760000e+00 0.000000e+00 0.000000e+00
1.770000e+00 0.000000e+00 0.000000e+00
1.780000e+00 0.000000e+00 0.000000e+00
1.790000e+00 0.000000e+00 0.000000e+00
1.800000e+00 0.000000e+00 0.000000e+00
1.810000e+00 0.000000e+00 0.000000e+00
1.820000e+00 0.000000e+00 0.000000e+00
1.830000e+00 0.000000e+00 0.000000e+00
1.840000e+00 0.000000e+00 0.000000e+00
1.850000e+00 0.000000e+00 0.000000e+00
1.860000e+00 0.000000e+00 0.000000e+00
1.870000e+00 0.000000e+00 0.000000e+00
1.880000e+00 0.000000e+00 0.000000e+00
1.890000e+00 0.000000e+00 0.000000e+00
1.900000e+00 0.000000e+00 0.000000e+00
1.910000e+00 0.000000e+00 0.000000e+00
1.920000e+00 0.000000e+00 0.000000e+00
1.930000e+00 0.000000e+00 0.000000e+00
1.940000e+00 0.000000e+00 0.000000e+00
1.950000e+00 0.000000e+00 0.000000e+00
1.960000e+00 0.000000e+00 0.000000e+00
1.970000e+00 0.000000e+00 0.000000e+00
1.980000e+00 0.000000e+00 0.000000e+00
1.990000e+00 0.000000e+00 0.000000e+00

CELLS 200 600
2 0 3 
2 3 4 
2 4 5 
2 5 6 
2 6 7 
2 7 8 
2 8 9 
2 9 10 
2 10 11 
2 11 12 
2 12 13 
2 13 14 
2 14 15 
2 15 16 
2 16 17 
2 17 18 
2 18 19 
2 19 20 
2 20 21 
2 21 22 
2 22 23 
2 23 24 
2 24 25 
2 25 26 
2 26 27 
2 27 28 
2 28 29 
2 29 30 
2 30 31 
2 31 32 
2 32 33 
2 33 34 
2 34 35 
2 35 36 
2 36 37 
2 37 38 
2 38 39 
2 39 40 
2 40 41 
2 41 42 
2 42 43 
2 43 44 
2 44 45 
2 45 46 
2 46 47 
2 47 48 
2 48 49 
2 49 50 
2 50 51 
2 51 52 
2 52 53 
2 53 54 
2 54 55 
2 55 56 
2 56 57 
2 57 58 
2 58 59 
2 59 60 
2 60 61 
2 61 62 
2 62 63 
2 63 64 
2 64 65 
2 65 66 
2 66 67 
2 67 68 
2 68 69 
2 69 70 
2 70 71 
2 71 72 
2 72 73 
2 73 74 
2 74 75 
2 75 76 
2 76 77 
2 77 78 
2 78 79 
2 79 80 
2 80 81 
2 81 82 
2 82 83 
2 83 84 
2 84 85 
2 85 86 
2 86 87 
2 87 88 
2 88 89 
2 89 90 
2 90 91 
2 91 92 
2 92 93 
2 93 94 
2 94 95 
2 95 96 
2 96 97 
2 97 98 
2 98 99 
2 99 100 
2 100 101 
2 101 1 
2 1 102 
2 102 103 
2 103 104 
2 104 105 
2 105 106 
2 106 107 
2 107 108 
2 108 109 
2 109 110 
2 110 111 
2 111 112 
2 112 113 
2 113 114 
2 114 115 
2 115 116 
2 116 117 
2 117 118 
2 118 119 
2 119 120 
2 120 121 
2 121 122 
2 122 123 
2 123 124 
2 124 125 
2 125 126 
2 126 127 
2 127 128 
2 128 129 
2 129 130 
2 130 131 
2 131 132 
2 132 133 
2 133 134 
2 134 135 
2 135 136 
2 136 137 
2 137 138 
2 138 139 
2 139 140 
2 140 141 
2 141 142 
2 142 143 
2 143 144 
2 144 145 
2 145 146 
2 146 147 
2 147 148 
2 148 149 
2 149 150 
2 150 151 
2 151 152 
2 152 153 
2 153 154 
2 154 155 
2 155 156 
2 156 157 
2 157 158 
2 158 159 
2 159 160 
2 160 161 
2 161 162 
2 162 163 
2 163 164 
2 164 165 
2 165 166 
2 166 167 
2 167 168 
2 168 169 
2 169 170 
2 170 171 
2 171 172 
2 172 173 
2 173 174 
2 174 175 
2 175 176 
2 176 177 
2 177 178 
2 178 179 
2 179 180 
2 180 181 
2 181 182 
2 182 183 
2 183 184 
2 184 185 
2 185 186 
2 186 187 
2 187 188 
2 188 189 
2 189 190 
2 190 191 
2 191 192 
2 192 193 
2 193 194 
2 194 195 
2 195 196 
2 196 197 
2 197 198 
2 198 199 
2 199 200 
2 200 2 

CELL_TYPES 200
3
3
3
3
3
3
3
3
3
3
3
3
3
3
3
3
3
3
3
3
3
3
3
3
3
3
3
3
3
3
3
3
3
3
3
3
3
3
3
3
3
3
3
3
3
3
3
3
3
3
3
3
3
3
3
3
3
3
3
3
3
3
3
3
3
3
3
3
3
3
3
3
3
3
3
3
3
3
3
3
3
3
3
3
3
3
3
3
3
3
3
3
3
3
3
3
3
3
3
3
3
3
3
3
3
3
3
3
3
3
3
3
3
3
3
3
3
3
3
3
3
3
3
3
3
3
3
3
3
3
3
3
3
3
3
3
3
3
3
3
3
3
3
3
3
3
3
3
3
3
3
3
3
3
3
3
3
3
3
3
3
3
3
3
3
3
3
3
3
3
3
3
3
3
3
3
3
3
3
3
3
3
3
3
3
3
3
3
3
3
3
3
3
3
3
3
3
3
3
3

POINT_DATA 201

SCALARS node_groups int 1
LOOKUP_TABLE default
1
2
3
1
1
1
1
1
1
1
1
1
1
1
1
1
1
1
1
1
1
1
1
1
1
1
1
1
1
1
1
1
1
1
1
1
1
1
1
1
1
1
1
1
1
1
1
1
1
1
1
1
1
1
1
1
1
1
1
1
1
1
1
1
1
1
1
1
1
1
1
1
1
1
1
1
1
1
1
1
1
1
1
1
1
1
1
1
1
1
1
1
1
1
1
1
1
1
1
1
1
1
2
2
2
2
2
2
2
2
2
2
2
2
2
2
2
2
2
2
2
2
2
2
2
2
2
2
2
2
2
2
2
2
2
2
2
2
2
2
2
2
2
2
2
2
2
2
2
2
2
2
2
2
2
2
2
2
2
2
2
2
2
2
2
2
2
2
2
2
2
2
2
2
2
2
2
2
2
2
2
2
2
2
2
2
2
2
2
2
2
2
2
2
2
2
2
2
2
2
2

SCALARS phil float 1
LOOKUP_TABLE default
0.000000e+00
-5.296878e-02
-8.777764e-02
-5.296878e-04
-1.059376e-03
-1.589063e-03
-2.118751e-03
-2.648439e-03
-3.178127e-03
-3.707815e-03
-4.237502e-03
-4.767190e-03
-5.296878e-03
-5.826566e-03
-6.356254e-03
-6.885941e-03
-7.415629e-03
-7.945317e-03
-8.475005e-03
-9.004693e-03
-9.534380e-03
-1.006407e-02
-1.059376e-02
-1.112344e-02
-1.165313e-02
-1.218282e-02
-1.271251e-02
-1.324220e-02
-1.377188e-02
-1.430157e-02
-1.483126e-02
-1.536095e-02
-1.589063e-02
-1.642032e-02
-1.695001e-02
-1.747970e-02
-1.800939e-02
-1.853907e-02
-1.906876e-02
-1.959845e-02
-2.012814e-02
-2.065782e-02
-2.118751e-02
-2.171720e-02
-2.224689e-02
-2.277658e-02
-2.330626e-02
-2.383595e-02
-2.436564e-02
-2.489533e-02
-2.542501e-02
-2.595470e-02
-2.648439e-02
-2.701408e-02
-2.754377e-02
-2.807345e-02
-2.860314e-02
-2.913283e-02
-2.966252e-02
-3.019220e-02
-3.072189e-02
-3.125158e-02
-3.178127e-02
-3.231096e-02
-3.284064e-02
-3.337033e-02
-3.390002e-02
-3.442971e-02
-3.495940e-02
-3.548908e-02
-3.601877e-02
-3.654846e-02
-3.707815e-02
-3.760783e-02
-3.813752e-02
-3.866721e-02
-3.919690e-02
-3.972659e-02
-4.025627e-02
-4.078596e-02
-4.131565e-02
-4.184534e-02
-4.237502e-02
-4.290471e-02
-4.343440e-02
-4.396409e-02
-4.449378e-02
-4.502346e-02
-4.555315e-02
-4.608284e-02
-4.661253e-02
-4.714221e-02
-4.767190e-02
-4.820159e-02
-4.873128e-02
-4.926097e-02
-4.979065e-02
-5.032034e-02
-5.085003e-02
-5.137972e-02
-5.190940e-02
-5.243909e-02
-5.349840e-02
-5.402763e-02
-5.455612e-02
-5.508353e-02
-5.560957e-02
-5.613397e-02
-5.665649e-02
-5.717690e-02
-5.769499e-02
-5.821057e-02
-5.872343e-02
-5.923336e-02
-5.974016e-02
-6.024360e-02
-6.074348e-02
-6.123962e-02
-6.173186e-02
-6.222010e-02
-6.270423e-02
-6.318419e-02
-6.365993e-02
-6.413142e-02
-6.459862e-02
-6.506153e-02
-6.552013e-02
-6.597438e-02
-6.642418e-02
-6.686940e-02
-6.730991e-02
-6.774560e-02
-6.817637e-02
-6.860211e-02
-6.902273e-02
-6.943815e-02
-6.984829e-02
-7.025305e-02
-7.065234e-02
-7.104606e-02
-7.143409e-02
-7.181633e-02
-7.219270e-02
-7.256313e-02
-7.292757e-02
-7.328601e-02
-7.363843e-02
-7.398486e-02
-7.432532e-02
-7.465983e-02
-7.498842e-02
-7.531111e-02
-7.563080e-02
-7.595010e-02
-7.626865e-02
-7.658612e-02
-7.690224e-02
-7.721676e-02
-7.752943e-02
-7.784007e-02
-7.814849e-02
-7.845450e-02
-7.875792e-02
-7.905853e-02
-7.935612e-02
-7.965041e-02
-7.994118e-02
-8.022821e-02
-8.051133e-02
-8.079044e-02
-8.106544e-02
-8.133630e-02
-8.160299e-02
-8.186553e-02
-8.212392e-02
-8.237818e-02
-8.262831e-02
-8.287439e-02
-8.311675e-02
-8.335589e-02
-8.359244e-02
-8.382713e-02
-8.406090e-02
-8.429489e-02
-8.453067e-02
-8.477029e-02
-8.501663e-02
-8.527396e-02
-8.554938e-02
-8.585756e-02
-8.626511e-02
-8.664858e-02
-8.690837e-02
-8.711587e-02
-8.728587e-02
-8.742533e-02
-8.753827e-02
-8.762734e-02
-8.769446e-02
-8.774112e-02
-8.776855e-02

SCALARS phis float 1
LOOKUP_TABLE default
7.000000e-01
8.073296e-01
7.000000e-01
7.000000e-01
7.000000e-01
7.000000e-01
7.000000e-01
7.000000e-01
7.000000e-01
7.000000e-01
7.000000e-01
7.000000e-01
7.000000e-01
7.000000e-01
7.000000e-01
7.000000e-01
7.000000e-01
7.000000e-01
7.000000e-01
7.000000e-01
7.000000e-01
7.000000e-01
7.000000e-01
7.000000e-01
7.000000e-01
7.000000e-01
7.000000e-01
7.000000e-01
7.000000e-01
7.000000e-01
7.000000e-01
7.000000e-01
7.000000e-01
7.000000e-01
7.000000e-01
7.000000e-01
7.000000e-01
7.000000e-01
7.000000e-01
7.000000e-01
7.000000e-01
7.000000e-01
7.000000e-01
7.000000e-01
7.000000e-01
7.000000e-01
7.000000e-01
7.000000e-01
7.000000e-01
7.000000e-01
7.000000e-01
7.000000e-01
7.000000e-01
7.000000e-01
7.000000e-01
7.000000e-01
7.000000e-01
7.000000e-01
7.000000e-01
7.000000e-01
7.000000e-01
7.000000e-01
7.000000e-01
7.000000e-01
7.000000e-01
7.000000e-01
7.000000e-01
7.000000e-01
7.000000e-01
7.000000e-01
7.000000e-01
7.000000e-01
7.000000e-01
7.000000e-01
7.000000e-01
7.000000e-01
7.000000e-01
7.000000e-01
7.000000e-01
7.000000e-01
7.000000e-01
7.000000e-01
7.000000e-01
7.000000e-01
7.000000e-01
7.000000e-01
7.000000e-01
7.000000e-01
7.000000e-01
7.000000e-01
7.000000e-01
7.000000e-01
7.000000e-01
7.000000e-01
7.000000e-01
7.000000e-01
7.000000e-01
7.000000e-01
7.000000e-01
7.000000e-01
7.000000e-01
7.000000e-01
8.073260e-01
8.072920e-01
8.072240e-01
8.071223e-01
8.069871e-01
8.068188e-01
8.066177e-01
8.063844e-01
8.061192e-01
8.058227e-01
8.054956e-01
8.051382e-01
8.047513e-01
8.043354e-01
8.038913e-01
8.034197e-01
8.029214e-01
8.023974e-01
8.018485e-01
8.012760e-01
8.006807e-01
8.000638e-01
7.994265e-01
7.987700e-01
7.980954e-01
7.974035e-01
7.966945e-01
7.959686e-01
7.952258e-01
7.944665e-01
7.936911e-01
7.928998e-01
7.920933e-01
7.912718e-01
7.904361e-01
7.895866e-01
7.887240e-01
7.878487e-01
7.869616e-01
7.860632e-01
7.851543e-01
7.842357e-01
7.833085e-01
7.823735e-01
7.814318e-01
7.804846e-01
7.795328e-01
7.785777e-01
7.776205e-01
7.766624e-01
7.757006e-01
7.747083e-01
7.736821e-01
7.726221e-01
7.715287e-01
7.704021e-01
7.692429e-01
7.680513e-01
7.668279e-01
7.655732e-01
7.642878e-01
7.629722e-01
7.616271e-01
7.602530e-01
7.588506e-01
7.574208e-01
7.559643e-01
7.544820e-01
7.529749e-01
7.514441e-01
7.498906e-01
7.483155e-01
7.467200e-01
7.451052e-01
7.434724e-01
7.418223e-01
7.401551e-01
7.384709e-01
7.367699e-01
7.350524e-01
7.333187e-01
7.315692e-01
7.298044e-01
7.280248e-01
7.262308e-01
7.244231e-01
7.226022e-01
7.207687e-01
7.189233e-01
7.170667e-01
7.151996e-01
7.133228e-01
7.114373e-01
7.095441e-01
7.076442e-01
7.057387e-01
7.038288e-01
7.019154e-01
7.000000e-01

SCALARS il float 1
LOOKUP_TABLE default
-5.296878e-02
-5.296856e-02
-5.246292e-04
-5.296878e-02
-5.296878e-02
-5.296878e-02
-5.296878e-02
-5.296878e-02
-5.296878e-02
-5.296878e-02
-5.296878e-02
-5.296878e-02
-5.296878e-02
-5.296878e-02
-5.296878e-02
-5.296878e-02
-5.296878e-02
-5.296878e-02
-5.296878e-02
-5.296878e-02
-5.296878e-02
-5.296878e-02
-5.296878e-02
-5.296878e-02
-5.296878e-02
-5.296878e-02
-5.296878e-02
-5.296878e-02
-5.296878e-02
-5.296878e-02
-5.296878e-02
-5.296878e-02
-5.296878e-02
-5.296878e-02
-5.296878e-02
-5.296878e-02
-5.296878e-02
-5.296878e-02
-5.296878e-02
-5.296878e-02
-5.296878e-02
-5.296878e-02
-5.296878e-02
-5.296878e-02
-5.296878e-02
-5.296878e-02
-5.296878e-02
-5.296878e-02
-5.296878e-02
-5.296878e-02
-5.296878e-02
-5.296878e-02
-5.296878e-02
-5.296878e-02
-5.296878e-02
-5.296878e-02
-5.296878e-02
-5.296878e-02
-5.296878e-02
-5.296878e-02
-5.296878e-02
-5.296878e-02
-5.296878e-02
-5.296878e-02
-5.296878e-02
-5.296878e-02
-5.296878e-02
-5.296878e-02
-5.296878e-02
-5.296878e-02
-5.296878e-02
-5.296878e-02
-5.296878e-02
-5.296878e-02
-5.296878e-02
-5.296878e-02
-5.296878e-02
-5.296878e-02
-5.296878e-02
-5.296878e-02
-5.296878e-02
-5.296878e-02
-5.296878e-02
-5.296878e-02
-5.296878e-02
-5.296878e-02
-5.296878e-02
-5.296878e-02
-5.296878e-02
-5.296878e-02
-5.296878e-02
-5.296878e-02
-5.296878e-02
-5.296878e-02
-5.296878e-02
-5.296878e-02
-5.296878e-02
-5.296878e-02
-5.296878e-02
-5.296878e-02
-5.296876e-02
-5.296884e-02
-5.294881e-02
-5.289162e-02
-5.279981e-02
-5.267716e-02
-5.252642e-02
-5.235000e-02
-5.215015e-02
-5.192874e-02
-5.168689e-02
-5.142501e-02
-5.114296e-02
-5.084014e-02
-5.051575e-02
-5.016961e-02
-4.980356e-02
-4.942121e-02
-4.902577e-02
-4.861975e-02
-4.820561e-02
-4.778566e-02
-4.736173e-02
-4.693494e-02
-4.650596e-02
-4.607534e-02
-4.564361e-02
-4.520480e-02
-4.475286e-02
-4.428843e-02
-4.381225e-02
-4.332488e-02
-4.282701e-02
-4.231959e-02
-4.180348e-02
-4.127904e-02
-4.074611e-02
-4.020415e-02
-3.965230e-02
-3.908956e-02
-3.851561e-02
-3.793180e-02
-3.734062e-02
-3.674422e-02
-3.614431e-02
-3.554295e-02
-3.494206e-02
-3.434406e-02
-3.374614e-02
-3.316058e-02
-3.254118e-02
-3.206042e-02
-3.193316e-02
-3.190414e-02
-3.180444e-02
-3.168462e-02
-3.153546e-02
-3.136301e-02
-3.116901e-02
-3.095586e-02
-3.072447e-02
-3.047465e-02
-3.020519e-02
-2.991401e-02
-2.959845e-02
-2.925718e-02
-2.889261e-02
-2.850982e-02
-2.811336e-02
-2.770672e-02
-2.729351e-02
-2.687745e-02
-2.646130e-02
-2.604626e-02
-2.563240e-02
-2.521929e-02
-2.480707e-02
-2.441431e-02
-2.406590e-02
-2.377350e-02
-2.354845e-02
-2.340574e-02
-2.336551e-02
-2.346019e-02
-2.372582e-02
-2.425484e-02
-2.504258e-02
-2.667588e-02
-2.807823e-02
-3.609037e-02
-4.227908e-02
-3.210128e-02
-2.229516e-02
-1.890445e-02
-1.533810e-02
-1.258025e-02
-1.005984e-02
-7.785501e-03
-5.656075e-03
-3.723520e-03
-1.676759e-03

SCALARS is float 1
LOOKUP_TABLE default
-5.133481e-01
-2.634651e-03
-5.133481e-01
-5.133481e-01
-5.133481e-01
-5.133481e-01
-5.133481e-01
-5.133481e-01
-5.133481e-01
-5.133481e-01
-5.133481e-01
-5.133481e-01
-5.133481e-01
-5.133481e-01
-5.133481e-01
-5.133481e-01
-5.133481e-01
-5.133481e-01
-5.133481e-01
-5.133481e-01
-5.133481e-01
-5.133481e-01
-5.133481e-01
-5.133481e-01
-5.133481e-01
-5.133481e-01
-5.133481e-01
-5.133481e-01
-5.133481e-01
-5.133481e-01
-5.133481e-01
-5.133481e-01
-5.133481e-01
-5.133481e-01
-5.133481e-01
-5.133481e-01
-5.133481e-01
-5.133481e-01
-5.133481e-01
-5.133481e-01
-5.133481e-01
-5.133481e-01
-5.133481e-01
-5.133481e-01
-5.133481e-01
-5.133481e-01
-5.133481e-01
-5.133481e-01
-5.133481e-01
-5.133481e-01
-5.133481e-01
-5.133481e-01
-5.133481e-01
-5.133481e-01
-5.133481e-01
-5.133481e-01
-5.133481e-01
-5.133481e-01
-5.133481e-01
-5.133481e-01
-5.133481e-01
-5.133481e-01
-5.133481e-01
-5.133481e-01
-5.133481e-01
-5.133481e-01
-5.133481e-01
-5.133481e-01
-5.133481e-01
-5.133481e-01
-5.133481e-01
-5.133481e-01
-5.133481e-01
-5.133481e-01
-5.133481e-01
-5.133481e-01
-5.133481e-01
-5.133481e-01
-5.133481e-01
-5.133481e-01
-5.133481e-01
-5.133481e-01
-5.133481e-01
-5.133481e-01
-5.133481e-01
-5.133481e-01
-5.133481e-01
-5.133481e-01
-5.133481e-01
-5.133481e-01
-5.133481e-01
-5.133481e-01
-5.133481e-01
-5.133481e-01
-5.133481e-01
-5.133481e-01
-5.133481e-01
-5.133481e-01
-5.133481e-01
-5.133481e-01
-5.133481e-01
-5.133481e-01
1.607012e-02
5.130044e-02
8.482128e-02
1.185238e-01
1.518097e-01
1.847582e-01
2.172799e-01
2.493413e-01
2.808994e-01
3.119189e-01
3.423698e-01
3.722306e-01
4.014891e-01
4.301062e-01
4.580037e-01
4.851004e-01
5.113221e-01
5.366013e-01
5.608809e-01
5.841132e-01
6.062563e-01
6.272691e-01
6.471253e-01
6.657700e-01
6.833108e-01
7.004193e-01
7.174940e-01
7.343986e-01
7.510689e-01
7.674294e-01
7.834183e-01
7.989831e-01
8.140796e-01
8.286671e-01
8.427090e-01
8.561753e-01
8.690441e-01
8.813029e-01
8.929123e-01
9.037931e-01
9.138630e-01
9.230467e-01
9.312764e-01
9.384931e-01
9.446522e-01
9.496974e-01
9.536389e-01
9.562571e-01
9.582162e-01
9.569384e-01
9.739404e-01
1.009627e+00
1.043026e+00
1.076761e+00
1.110038e+00
1.142989e+00
1.175510e+00
1.207571e+00
1.239129e+00
1.270149e+00
1.300600e+00
1.330461e+00
1.359719e+00
1.388336e+00
1.416234e+00
1.443331e+00
1.469552e+00
1.494831e+00
1.519111e+00
1.542343e+00
1.564486e+00
1.585499e+00
1.605355e+00
1.624000e+00
1.641541e+00
1.658649e+00
1.675724e+00
1.692629e+00
1.709299e+00
1.725660e+00
1.741648e+00
1.757213e+00
1.772310e+00
1.786897e+00
1.800939e+00
1.814405e+00
1.827274e+00
1.839534e+00
1.851141e+00
1.862030e+00
1.872069e+00
1.881365e+00
1.889177e+00
1.897952e+00
1.898296e+00
1.925044e+00
1.847988e+00
2.152895e+00
1.026696e+00

CELL_DATA 200
SCALARS mat_id int 1
LOOKUP_TABLE default
1
1
1
1
1
1
1
1
1
1
1
1
1
1
1
1
1
1
1
1
1
1
1
1
1
1
1
1
1
1
1
1
1
1
1
1
1
1
1
1
1
1
1
1
1
1
1
1
1
1
1
1
1
1
1
1
1
1
1
1
1
1
1
1
1
1
1
1
1
1
1
1
1
1
1
1
1
1
1
1
1
1
1
1
1
1
1
1
1
1
1
1
1
1
1
1
1
1
1
1
2
2
2
2
2
2
2
2
2
2
2
2
2
2
2
2
2
2
2
2
2
2
2
2
2
2
2
2
2
2
2
2
2
2
2
2
2
2
2
2
2
2
2
2
2
2
2
2
2
2
2
2
2
2
2
2
2
2
2
2
2
2
2
2
2
2
2
2
2
2
2
2
2
2
2
2
2
2
2
2
2
2
2
2
2
2
2
2
2
2
2
2
2
2
2
2
2
2
2
2
