# vtk DataFile Version 2.0
step 11 time 4.583333e-02 normalized time 4.583333e-01, generated by simple.py
ASCII
DATASET UNSTRUCTURED_GRID

POINTS 201 float
0.000000e+00 0.000000e+00 0.000000e+00
1.000000e+00 0.000000e+00 0.000000e+00
2.000000e+00 0.000000e+00 0.000000e+00
1.000000e-02 0.000000e+00 0.000000e+00
2.000000e-02 0.000000e+00 0.000000e+00
3.000000e-02 0.000000e+00 0.000000e+00
4.000000e-02 0.000000e+00 0.000000e+00
5.000000e-02 0.000000e+00 0.000000e+00
6.000000e-02 0.000000e+00 0.000000e+00
7.000000e-02 0.000000e+00 0.000000e+00
8.000000e-02 0.000000e+00 0.000000e+00
9.000000e-02 0.000000e+00 0.000000e+00
1.000000e-01 0.000000e+00 0.000000e+00
1.100000e-01 0.000000e+00 0.000000e+00
1.200000e-01 0.000000e+00 0.000000e+00
1.300000e-01 0.000000e+00 0.000000e+00
1.400000e-01 0.000000e+00 0.000000e+00
1.500000e-01 0.000000e+00 0.000000e+00
1.600000e-01 0.000000e+00 0.000000e+00
1.700000e-01 0.000000e+00 0.000000e+00
1.800000e-01 0.000000e+00 0.000000e+00
1.900000e-01 0.000000e+00 0.000000e+00
2.000000e-01 0.000000e+00 0.000000e+00
2.100000e-01 0.000000e+00 0.000000e+00
2.200000e-01 0.000000e+00 0.000000e+00
2.300000e-01 0.000000e+00 0.000000e+00
2.400000e-01 0.000000e+00 0.000000e+00
2.500000e-01 0.000000e+00 0.000000e+00
2.600000e-01 0.000000e+00 0.000000e+00
2.700000e-01 0.000000e+00 0.000000e+00
2.800000e-01 0.000000e+00 0.000000e+00
2.900000e-01 0.000000e+00 0.000000e+00
3.000000e-01 0.000000e+00 0.000000e+00
3.100000e-01 0.000000e+00 0.000000e+00
3.200000e-01 0.000000e+00 0.000000e+00
3.300000e-01 0.000000e+00 0.000000e+00
3.400000e-01 0.000000e+00 0.000000e+00
3.500000e-01 0.000000e+00 0.000000e+00
3.600000e-01 0.000000e+00 0.000000e+00
3.700000e-01 0.000000e+00 0.000000e+00
3.800000e-01 0.000000e+00 0.000000e+00
3.900000e-01 0.000000e+00 0.000000e+00
4.000000e-01 0.000000e+00 0.000000e+00
4.100000e-01 0.000000e+00 0.000000e+00
4.200000e-01 0.000000e+00 0.000000e+00
4.300000e-01 0.000000e+00 0.000000e+00
4.400000e-01 0.000000e+00 0.000000e+00
4.500000e-01 0.000000e+00 0.000000e+00
4.600000e-01 0.000000e+00 0.000000e+00
4.700000e-01 0.000000e+00 0.000000e+00
4.800000e-01 0.000000e+00 0.000000e+00
4.900000e-01 0.000000e+00 0.000000e+00
5.000000e-01 0.000000e+00 0.000000e+00
5.100000e-01 0.000000e+00 0.000000e+00
5.200000e-01 0.000000e+00 0.000000e+00
5.300000e-01 0.000000e+00 0.000000e+00
5.400000e-01 0.000000e+00 0.000000e+00
5.500000e-01 0.000000e+00 0.000000e+00
5.600000e-01 0.000000e+00 0.000000e+00
5.700000e-01 0.000000e+00 0.000000e+00
5.800000e-01 0.000000e+00 0.000000e+00
5.900000e-01 0.000000e+00 0.000000e+00
6.000000e-01 0.000000e+00 0.000000e+00
6.100000e-01 0.000000e+00 0.000000e+00
6.200000e-01 0.000000e+00 0.000000e+00
6.300000e-01 0.000000e+00 0.000000e+00
6.400000e-01 0.000000e+00 0.000000e+00
6.500000e-01 0.000000e+00 0.000000e+00
6.600000e-01 0.000000e+00 0.000000e+00
6.700000e-01 0.000000e+00 0.000000e+00
6.800000e-01 0.000000e+00 0.000000e+00
6.900000e-01 0.000000e+00 0.000000e+00
7.000000e-01 0.000000e+00 0.000000e+00
7.100000e-01 0.000000e+00 0.000000e+00
7.200000e-01 0.000000e+00 0.000000e+00
7.300000e-01 0.000000e+00 0.000000e+00
7.400000e-01 0.000000e+00 0.000000e+00
7.500000e-01 0.000000e+00 0.000000e+00
7.600000e-01 0.000000e+00 0.000000e+00
7.700000e-01 0.000000e+00 0.000000e+00
7.800000e-01 0.000000e+00 0.000000e+00
7.900000e-01 0.000000e+00 0.000000e+00
8.000000e-01 0.000000e+00 0.000000e+00
8.100000e-01 0.000000e+00 0.000000e+00
8.200000e-01 0.000000e+00 0.000000e+00
8.300000e-01 0.000000e+00 0.000000e+00
8.400000e-01 0.000000e+00 0.000000e+00
8.500000e-01 0.000000e+00 0.000000e+00
8.600000e-01 0.000000e+00 0.000000e+00
8.700000e-01 0.000000e+00 0.000000e+00
8.800000e-01 0.000000e+00 0.000000e+00
8.900000e-01 0.000000e+00 0.000000e+00
9.000000e-01 0.000000e+00 0.000000e+00
9.100000e-01 0.000000e+00 0.000000e+00
9.200000e-01 0.000000e+00 0.000000e+00
9.300000e-01 0.000000e+00 0.000000e+00
9.400000e-01 0.000000e+00 0.000000e+00
9.500000e-01 0.000000e+00 0.000000e+00
9.600000e-01 0.000000e+00 0.000000e+00
9.700000e-01 0.000000e+00 0.000000e+00
9.800000e-01 0.000000e+00 0.000000e+00
9.900000e-01 0.000000e+00 0.000000e+00
1.010000e+00 0.000000e+00 0.000000e+00
1.020000e+00 0.000000e+00 0.000000e+00
1.030000e+00 0.000000e+00 0.000000e+00
1.040000e+00 0.000000e+00 0.000000e+00
1.050000e+00 0.000000e+00 0.000000e+00
1.060000e+00 0.000000e+00 0.000000e+00
1.070000e+00 0.000000e+00 0.000000e+00
1.080000e+00 0.000000e+00 0.000000e+00
1.090000e+00 0.000000e+00 0.000000e+00
1.100000e+00 0.000000e+00 0.000000e+00
1.110000e+00 0.000000e+00 0.000000e+00
1.120000e+00 0.000000e+00 0.000000e+00
1.130000e+00 0.000000e+00 0.000000e+00
1.140000e+00 0.000000e+00 0.000000e+00
1.150000e+00 0.000000e+00 0.000000e+00
1.160000e+00 0.000000e+00 0.000000e+00
1.170000e+00 0.000000e+00 0.000000e+00
1.180000e+00 0.000000e+00 0.000000e+00
1.190000e+00 0.000000e+00 0.000000e+00
1.200000e+00 0.000000e+00 0.000000e+00
1.210000e+00 0.000000e+00 0.000000e+00
1.220000e+00 0.000000e+00 0.000000e+00
1.230000e+00 0.000000e+00 0.000000e+00
1.240000e+00 0.000000e+00 0.000000e+00
1.250000e+00 0.000000e+00 0.000000e+00
1.260000e+00 0.000000e+00 0.000000e+00
1.270000e+00 0.000000e+00 0.000000e+00
1.280000e+00 0.000000e+00 0.000000e+00
1.290000e+00 0.000000e+00 0.000000e+00
1.300000e+00 0.000000e+00 0.000000e+00
1.310000e+00 0.000000e+00 0.000000e+00
1.320000e+00 0.000000e+00 0.000000e+00
1.330000e+00 0.000000e+00 0.000000e+00
1.340000e+00 0.000000e+00 0.000000e+00
1.350000e+00 0.000000e+00 0.000000e+00
1.360000e+00 0.000000e+00 0.000000e+00
1.370000e+00 0.000000e+00 0.000000e+00
1.380000e+00 0.000000e+00 0.000000e+00
1.390000e+00 0.000000e+00 0.000000e+00
1.400000e+00 0.000000e+00 0.000000e+00
1.410000e+00 0.000000e+00 0.000000e+00
1.420000e+00 0.000000e+00 0.000000e+00
1.430000e+00 0.000000e+00 0.000000e+00
1.440000e+00 0.000000e+00 0.000000e+00
1.450000e+00 0.000000e+00 0.000000e+00
1.460000e+00 0.000000e+00 0.000000e+00
1.470000e+00 0.000000e+00 0.000000e+00
1.480000e+00 0.000000e+00 0.000000e+00
1.490000e+00 0.000000e+00 0.000000e+00
1.500000e+00 0.000000e+00 0.000000e+00
1.510000e+00 0.000000e+00 0.000000e+00
1.520000e+00 0.000000e+00 0.000000e+00
1.530000e+00 0.000000e+00 0.000000e+00
1.540000e+00 0.000000e+00 0.000000e+00
1.550000e+00 0.000000e+00 0.000000e+00
1.560000e+00 0.000000e+00 0.000000e+00
1.570000e+00 0.000000e+00 0.000000e+00
1.580000e+00 0.000000e+00 0.000000e+00
1.590000e+00 0.000000e+00 0.000000e+00
1.600000e+00 0.000000e+00 0.000000e+00
1.610000e+00 0.000000e+00 0.000000e+00
1.620000e+00 0.000000e+00 0.000000e+00
1.630000e+00 0.000000e+00 0.000000e+00
1.640000e+00 0.000000e+00 0.000000e+00
1.650000e+00 0.000000e+00 0.000000e+00
1.660000e+00 0.000000e+00 0.000000e+00
1.670000e+00 0.000000e+00 0.000000e+00
1.680000e+00 0.000000e+00 0.000000e+00
1.690000e+00 0.000000e+00 0.000000e+00
1.700000e+00 0.000000e+00 0.000000e+00
1.710000e+00 0.000000e+00 0.000000e+00
1.720000e+00 0.000000e+00 0.000000e+00
1.730000e+00 0.000000e+00 0.000000e+00
1.740000e+00 0.000000e+00 0.000000e+00
1.750000e+00 0.000000e+00 0.000000e+00
1.760000e+00 0.000000e+00 0.000000e+00
1.770000e+00 0.000000e+00 0.000000e+00
1.780000e+00 0.000000e+00 0.000000e+00
1.790000e+00 0.000000e+00 0.000000e+00
1.800000e+00 0.000000e+00 0.000000e+00
1.810000e+00 0.000000e+00 0.000000e+00
1.820000e+00 0.000000e+00 0.000000e+00
1.830000e+00 0.000000e+00 0.000000e+00
1.840000e+00 0.000000e+00 0.000000e+00
1.850000e+00 0.000000e+00 0.000000e+00
1.860000e+00 0.000000e+00 0.000000e+00
1.870000e+00 0.000000e+00 0.000000e+00
1.880000e+00 0.000000e+00 0.000000e+00
1.890000e+00 0.000000e+00 0.000000e+00
1.900000e+00 0.000000e+00 0.000000e+00
1.910000e+00 0.000000e+00 0.000000e+00
1.920000e+00 0.000000e+00 0.000000e+00
1.930000e+00 0.000000e+00 0.000000e+00
1.940000e+00 0.000000e+00 0.000000e+00
1.950000e+00 0.000000e+00 0.000000e+00
1.960000e+00 0.000000e+00 0.000000e+00
1.970000e+00 0.000000e+00 0.000000e+00
1.980000e+00 0.000000e+00 0.000000e+00
1.990000e+00 0.000000e+00 0.000000e+00

CELLS 200 600
2 0 3 
2 3 4 
2 4 5 
2 5 6 
2 6 7 
2 7 8 
2 8 9 
2 9 10 
2 10 11 
2 11 12 
2 12 13 
2 13 14 
2 14 15 
2 15 16 
2 16 17 
2 17 18 
2 18 19 
2 19 20 
2 20 21 
2 21 22 
2 22 23 
2 23 24 
2 24 25 
2 25 26 
2 26 27 
2 27 28 
2 28 29 
2 29 30 
2 30 31 
2 31 32 
2 32 33 
2 33 34 
2 34 35 
2 35 36 
2 36 37 
2 37 38 
2 38 39 
2 39 40 
2 40 41 
2 41 42 
2 42 43 
2 43 44 
2 44 45 
2 45 46 
2 46 47 
2 47 48 
2 48 49 
2 49 50 
2 50 51 
2 51 52 
2 52 53 
2 53 54 
2 54 55 
2 55 56 
2 56 57 
2 57 58 
2 58 59 
2 59 60 
2 60 61 
2 61 62 
2 62 63 
2 63 64 
2 64 65 
2 65 66 
2 66 67 
2 67 68 
2 68 69 
2 69 70 
2 70 71 
2 71 72 
2 72 73 
2 73 74 
2 74 75 
2 75 76 
2 76 77 
2 77 78 
2 78 79 
2 79 80 
2 80 81 
2 81 82 
2 82 83 
2 83 84 
2 84 85 
2 85 86 
2 86 87 
2 87 88 
2 88 89 
2 89 90 
2 90 91 
2 91 92 
2 92 93 
2 93 94 
2 94 95 
2 95 96 
2 96 97 
2 97 98 
2 98 99 
2 99 100 
2 100 101 
2 101 1 
2 1 102 
2 102 103 
2 103 104 
2 104 105 
2 105 106 
2 106 107 
2 107 108 
2 108 109 
2 109 110 
2 110 111 
2 111 112 
2 112 113 
2 113 114 
2 114 115 
2 115 116 
2 116 117 
2 117 118 
2 118 119 
2 119 120 
2 120 121 
2 121 122 
2 122 123 
2 123 124 
2 124 125 
2 125 126 
2 126 127 
2 127 128 
2 128 129 
2 129 130 
2 130 131 
2 131 132 
2 132 133 
2 133 134 
2 134 135 
2 135 136 
2 136 137 
2 137 138 
2 138 139 
2 139 140 
2 140 141 
2 141 142 
2 142 143 
2 143 144 
2 144 145 
2 145 146 
2 146 147 
2 147 148 
2 148 149 
2 149 150 
2 150 151 
2 151 152 
2 152 153 
2 153 154 
2 154 155 
2 155 156 
2 156 157 
2 157 158 
2 158 159 
2 159 160 
2 160 161 
2 161 162 
2 162 163 
2 163 164 
2 164 165 
2 165 166 
2 166 167 
2 167 168 
2 168 169 
2 169 170 
2 170 171 
2 171 172 
2 172 173 
2 173 174 
2 174 175 
2 175 176 
2 176 177 
2 177 178 
2 178 179 
2 179 180 
2 180 181 
2 181 182 
2 182 183 
2 183 184 
2 184 185 
2 185 186 
2 186 187 
2 187 188 
2 188 189 
2 189 190 
2 190 191 
2 191 192 
2 192 193 
2 193 194 
2 194 195 
2 195 196 
2 196 197 
2 197 198 
2 198 199 
2 199 200 
2 200 2 

CELL_TYPES 200
3
3
3
3
3
3
3
3
3
3
3
3
3
3
3
3
3
3
3
3
3
3
3
3
3
3
3
3
3
3
3
3
3
3
3
3
3
3
3
3
3
3
3
3
3
3
3
3
3
3
3
3
3
3
3
3
3
3
3
3
3
3
3
3
3
3
3
3
3
3
3
3
3
3
3
3
3
3
3
3
3
3
3
3
3
3
3
3
3
3
3
3
3
3
3
3
3
3
3
3
3
3
3
3
3
3
3
3
3
3
3
3
3
3
3
3
3
3
3
3
3
3
3
3
3
3
3
3
3
3
3
3
3
3
3
3
3
3
3
3
3
3
3
3
3
3
3
3
3
3
3
3
3
3
3
3
3
3
3
3
3
3
3
3
3
3
3
3
3
3
3
3
3
3
3
3
3
3
3
3
3
3
3
3
3
3
3
3
3
3
3
3
3
3
3
3
3
3
3
3

POINT_DATA 201

SCALARS node_groups int 1
LOOKUP_TABLE default
1
2
3
1
1
1
1
1
1
1
1
1
1
1
1
1
1
1
1
1
1
1
1
1
1
1
1
1
1
1
1
1
1
1
1
1
1
1
1
1
1
1
1
1
1
1
1
1
1
1
1
1
1
1
1
1
1
1
1
1
1
1
1
1
1
1
1
1
1
1
1
1
1
1
1
1
1
1
1
1
1
1
1
1
1
1
1
1
1
1
1
1
1
1
1
1
1
1
1
1
1
1
2
2
2
2
2
2
2
2
2
2
2
2
2
2
2
2
2
2
2
2
2
2
2
2
2
2
2
2
2
2
2
2
2
2
2
2
2
2
2
2
2
2
2
2
2
2
2
2
2
2
2
2
2
2
2
2
2
2
2
2
2
2
2
2
2
2
2
2
2
2
2
2
2
2
2
2
2
2
2
2
2
2
2
2
2
2
2
2
2
2
2
2
2
2
2
2
2
2
2

SCALARS phil float 1
LOOKUP_TABLE default
0.000000e+00
-9.228520e-02
-1.456077e-01
-9.228520e-04
-1.845704e-03
-2.768556e-03
-3.691408e-03
-4.614260e-03
-5.537112e-03
-6.459964e-03
-7.382816e-03
-8.305668e-03
-9.228520e-03
-1.015137e-02
-1.107422e-02
-1.199708e-02
-1.291993e-02
-1.384278e-02
-1.476563e-02
-1.568848e-02
-1.661134e-02
-1.753419e-02
-1.845704e-02
-1.937989e-02
-2.030274e-02
-2.122559e-02
-2.214845e-02
-2.307130e-02
-2.399415e-02
-2.491700e-02
-2.583985e-02
-2.676271e-02
-2.768556e-02
-2.860841e-02
-2.953126e-02
-3.045411e-02
-3.137697e-02
-3.229982e-02
-3.322267e-02
-3.414552e-02
-3.506837e-02
-3.599123e-02
-3.691408e-02
-3.783693e-02
-3.875978e-02
-3.968263e-02
-4.060549e-02
-4.152834e-02
-4.245119e-02
-4.337404e-02
-4.429689e-02
-4.521975e-02
-4.614260e-02
-4.706545e-02
-4.798830e-02
-4.891115e-02
-4.983401e-02
-5.075686e-02
-5.167971e-02
-5.260256e-02
-5.352541e-02
-5.444827e-02
-5.537112e-02
-5.629397e-02
-5.721682e-02
-5.813967e-02
-5.906252e-02
-5.998538e-02
-6.090823e-02
-6.183108e-02
-6.275393e-02
-6.367678e-02
-6.459964e-02
-6.552249e-02
-6.644534e-02
-6.736819e-02
-6.829104e-02
-6.921390e-02
-7.013675e-02
-7.105960e-02
-7.198245e-02
-7.290530e-02
-7.382816e-02
-7.475101e-02
-7.567386e-02
-7.659671e-02
-7.751956e-02
-7.844242e-02
-7.936527e-02
-8.028812e-02
-8.121097e-02
-8.213382e-02
-8.305668e-02
-8.397953e-02
-8.490238e-02
-8.582523e-02
-8.674808e-02
-8.767094e-02
-8.859379e-02
-8.951664e-02
-9.043949e-02
-9.136234e-02
-9.320801e-02
-9.413064e-02
-9.505284e-02
-9.597432e-02
-9.689471e-02
-9.781362e-02
-9.873063e-02
-9.964528e-02
-1.005571e-01
-1.014657e-01
-1.023705e-01
-1.032712e-01
-1.041674e-01
-1.050585e-01
-1.059444e-01
-1.068244e-01
-1.076984e-01
-1.085657e-01
-1.094259e-01
-1.102785e-01
-1.111231e-01
-1.119593e-01
-1.127864e-01
-1.136044e-01
-1.144132e-01
-1.152127e-01
-1.160028e-01
-1.167831e-01
-1.175531e-01
-1.183126e-01
-1.190611e-01
-1.197982e-01
-1.205235e-01
-1.212366e-01
-1.219370e-01
-1.226242e-01
-1.232979e-01
-1.239575e-01
-1.246027e-01
-1.252330e-01
-1.258478e-01
-1.264468e-01
-1.270294e-01
-1.275951e-01
-1.281432e-01
-1.286733e-01
-1.291846e-01
-1.296766e-01
-1.301491e-01
-1.306019e-01
-1.310448e-01
-1.314875e-01
-1.319297e-01
-1.323709e-01
-1.328110e-01
-1.332495e-01
-1.336861e-01
-1.341204e-01
-1.345521e-01
-1.349806e-01
-1.354058e-01
-1.358272e-01
-1.362444e-01
-1.366572e-01
-1.370651e-01
-1.374680e-01
-1.378653e-01
-1.382568e-01
-1.386420e-01
-1.390205e-01
-1.393921e-01
-1.397562e-01
-1.401125e-01
-1.404608e-01
-1.408011e-01
-1.411332e-01
-1.414569e-01
-1.417718e-01
-1.420776e-01
-1.423738e-01
-1.426600e-01
-1.429358e-01
-1.432008e-01
-1.434546e-01
-1.436967e-01
-1.439267e-01
-1.441441e-01
-1.443485e-01
-1.445395e-01
-1.447165e-01
-1.448792e-01
-1.450269e-01
-1.451593e-01
-1.452757e-01
-1.453756e-01
-1.454584e-01
-1.455235e-01
-1.455702e-01
-1.455983e-01

SCALARS phis float 1
LOOKUP_TABLE default
7.000000e-01
7.009333e-01
7.000000e-01
7.000000e-01
7.000000e-01
7.000000e-01
7.000000e-01
7.000000e-01
7.000000e-01
7.000000e-01
7.000000e-01
7.000000e-01
7.000000e-01
7.000000e-01
7.000000e-01
7.000000e-01
7.000000e-01
7.000000e-01
7.000000e-01
7.000000e-01
7.000000e-01
7.000000e-01
7.000000e-01
7.000000e-01
7.000000e-01
7.000000e-01
7.000000e-01
7.000000e-01
7.000000e-01
7.000000e-01
7.000000e-01
7.000000e-01
7.000000e-01
7.000000e-01
7.000000e-01
7.000000e-01
7.000000e-01
7.000000e-01
7.000000e-01
7.000000e-01
7.000000e-01
7.000000e-01
7.000000e-01
7.000000e-01
7.000000e-01
7.000000e-01
7.000000e-01
7.000000e-01
7.000000e-01
7.000000e-01
7.000000e-01
7.000000e-01
7.000000e-01
7.000000e-01
7.000000e-01
7.000000e-01
7.000000e-01
7.000000e-01
7.000000e-01
7.000000e-01
7.000000e-01
7.000000e-01
7.000000e-01
7.000000e-01
7.000000e-01
7.000000e-01
7.000000e-01
7.000000e-01
7.000000e-01
7.000000e-01
7.000000e-01
7.000000e-01
7.000000e-01
7.000000e-01
7.000000e-01
7.000000e-01
7.000000e-01
7.000000e-01
7.000000e-01
7.000000e-01
7.000000e-01
7.000000e-01
7.000000e-01
7.000000e-01
7.000000e-01
7.000000e-01
7.000000e-01
7.000000e-01
7.000000e-01
7.000000e-01
7.000000e-01
7.000000e-01
7.000000e-01
7.000000e-01
7.000000e-01
7.000000e-01
7.000000e-01
7.000000e-01
7.000000e-01
7.000000e-01
7.000000e-01
7.000000e-01
7.009333e-01
7.009330e-01
7.009325e-01
7.009316e-01
7.009305e-01
7.009291e-01
7.009274e-01
7.009254e-01
7.009232e-01
7.009206e-01
7.009179e-01
7.009148e-01
7.009115e-01
7.009079e-01
7.009041e-01
7.009001e-01
7.008958e-01
7.008913e-01
7.008866e-01
7.008816e-01
7.008765e-01
7.008711e-01
7.008656e-01
7.008600e-01
7.008541e-01
7.008482e-01
7.008421e-01
7.008358e-01
7.008294e-01
7.008229e-01
7.008163e-01
7.008094e-01
7.008025e-01
7.007954e-01
7.007882e-01
7.007809e-01
7.007734e-01
7.007658e-01
7.007582e-01
7.007504e-01
7.007425e-01
7.007345e-01
7.007264e-01
7.007183e-01
7.007100e-01
7.007018e-01
7.006934e-01
7.006851e-01
7.006767e-01
7.006683e-01
7.006598e-01
7.006512e-01
7.006422e-01
7.006329e-01
7.006234e-01
7.006136e-01
7.006035e-01
7.005931e-01
7.005825e-01
7.005716e-01
7.005604e-01
7.005489e-01
7.005372e-01
7.005253e-01
7.005131e-01
7.005006e-01
7.004879e-01
7.004750e-01
7.004619e-01
7.004485e-01
7.004350e-01
7.004213e-01
7.004074e-01
7.003933e-01
7.003791e-01
7.003647e-01
7.003502e-01
7.003356e-01
7.003208e-01
7.003059e-01
7.002908e-01
7.002756e-01
7.002602e-01
7.002448e-01
7.002292e-01
7.002134e-01
7.001976e-01
7.001816e-01
7.001655e-01
7.001493e-01
7.001330e-01
7.001166e-01
7.001001e-01
7.000836e-01
7.000670e-01
7.000503e-01
7.000336e-01
7.000168e-01
7.000000e-01

SCALARS il float 1
LOOKUP_TABLE default
-9.228520e-02
-9.228509e-02
-5.414205e-04
-9.228520e-02
-9.228520e-02
-9.228520e-02
-9.228520e-02
-9.228520e-02
-9.228520e-02
-9.228520e-02
-9.228520e-02
-9.228520e-02
-9.228520e-02
-9.228520e-02
-9.228520e-02
-9.228520e-02
-9.228520e-02
-9.228520e-02
-9.228520e-02
-9.228520e-02
-9.228520e-02
-9.228520e-02
-9.228520e-02
-9.228520e-02
-9.228520e-02
-9.228520e-02
-9.228520e-02
-9.228520e-02
-9.228520e-02
-9.228520e-02
-9.228520e-02
-9.228520e-02
-9.228520e-02
-9.228520e-02
-9.228520e-02
-9.228520e-02
-9.228520e-02
-9.228520e-02
-9.228520e-02
-9.228520e-02
-9.228520e-02
-9.228520e-02
-9.228520e-02
-9.228520e-02
-9.228520e-02
-9.228520e-02
-9.228520e-02
-9.228520e-02
-9.228520e-02
-9.228520e-02
-9.228520e-02
-9.228520e-02
-9.228520e-02
-9.228520e-02
-9.228520e-02
-9.228520e-02
-9.228520e-02
-9.228520e-02
-9.228520e-02
-9.228520e-02
-9.228520e-02
-9.228520e-02
-9.228520e-02
-9.228520e-02
-9.228520e-02
-9.228520e-02
-9.228520e-02
-9.228520e-02
-9.228520e-02
-9.228520e-02
-9.228520e-02
-9.228520e-02
-9.228520e-02
-9.228520e-02
-9.228520e-02
-9.228520e-02
-9.228520e-02
-9.228520e-02
-9.228520e-02
-9.228520e-02
-9.228520e-02
-9.228520e-02
-9.228520e-02
-9.228520e-02
-9.228520e-02
-9.228520e-02
-9.228520e-02
-9.228520e-02
-9.228520e-02
-9.228520e-02
-9.228520e-02
-9.228520e-02
-9.228520e-02
-9.228520e-02
-9.228520e-02
-9.228520e-02
-9.228520e-02
-9.228520e-02
-9.228519e-02
-9.228520e-02
-9.228519e-02
-9.228522e-02
-9.227560e-02
-9.224574e-02
-9.218938e-02
-9.209970e-02
-9.197204e-02
-9.180320e-02
-9.159070e-02
-9.133266e-02
-9.102839e-02
-9.067831e-02
-9.028380e-02
-8.984707e-02
-8.937080e-02
-8.885660e-02
-8.830337e-02
-8.770814e-02
-8.706847e-02
-8.638289e-02
-8.565069e-02
-8.487151e-02
-8.404559e-02
-8.316925e-02
-8.225712e-02
-8.133751e-02
-8.041993e-02
-7.948748e-02
-7.852203e-02
-7.752129e-02
-7.648325e-02
-7.540608e-02
-7.428829e-02
-7.312862e-02
-7.192593e-02
-7.067938e-02
-6.938843e-02
-6.805285e-02
-6.667276e-02
-6.524850e-02
-6.377988e-02
-6.226534e-02
-6.070233e-02
-5.908834e-02
-5.742101e-02
-5.569867e-02
-5.391860e-02
-5.208229e-02
-5.017111e-02
-4.824430e-02
-4.618546e-02
-4.458356e-02
-4.421151e-02
-4.426692e-02
-4.417075e-02
-4.407459e-02
-4.393508e-02
-4.376202e-02
-4.355137e-02
-4.330311e-02
-4.301675e-02
-4.269272e-02
-4.233187e-02
-4.193559e-02
-4.150558e-02
-4.104276e-02
-4.054642e-02
-4.001477e-02
-3.944632e-02
-3.884008e-02
-3.819553e-02
-3.751229e-02
-3.679041e-02
-3.602689e-02
-3.523244e-02
-3.442844e-02
-3.362226e-02
-3.279766e-02
-3.193728e-02
-3.103950e-02
-3.010304e-02
-2.912664e-02
-2.810924e-02
-2.704988e-02
-2.594769e-02
-2.480190e-02
-2.361199e-02
-2.237762e-02
-2.109872e-02
-1.977537e-02
-1.840715e-02
-1.699253e-02
-1.552921e-02
-1.401486e-02
-1.244716e-02
-1.082458e-02
-9.143581e-03
-7.408197e-03
-5.589937e-03
-3.783972e-03
-1.729111e-03

SCALARS is float 1
LOOKUP_TABLE default
-4.499751e-03
-2.180301e-05
-4.499751e-03
-4.499751e-03
-4.499751e-03
-4.499751e-03
-4.499751e-03
-4.499751e-03
-4.499751e-03
-4.499751e-03
-4.499751e-03
-4.499751e-03
-4.499751e-03
-4.499751e-03
-4.499751e-03
-4.499751e-03
-4.499751e-03
-4.499751e-03
-4.499751e-03
-4.499751e-03
-4.499751e-03
-4.499751e-03
-4.499751e-03
-4.499751e-03
-4.499751e-03
-4.499751e-03
-4.499751e-03
-4.499751e-03
-4.499751e-03
-4.499751e-03
-4.499751e-03
-4.499751e-03
-4.499751e-03
-4.499751e-03
-4.499751e-03
-4.499751e-03
-4.499751e-03
-4.499751e-03
-4.499751e-03
-4.499751e-03
-4.499751e-03
-4.499751e-03
-4.499751e-03
-4.499751e-03
-4.499751e-03
-4.499751e-03
-4.499751e-03
-4.499751e-03
-4.499751e-03
-4.499751e-03
-4.499751e-03
-4.499751e-03
-4.499751e-03
-4.499751e-03
-4.499751e-03
-4.499751e-03
-4.499751e-03
-4.499751e-03
-4.499751e-03
-4.499751e-03
-4.499751e-03
-4.499751e-03
-4.499751e-03
-4.499751e-03
-4.499751e-03
-4.499751e-03
-4.499751e-03
-4.499751e-03
-4.499751e-03
-4.499751e-03
-4.499751e-03
-4.499751e-03
-4.499751e-03
-4.499751e-03
-4.499751e-03
-4.499751e-03
-4.499751e-03
-4.499751e-03
-4.499751e-03
-4.499751e-03
-4.499751e-03
-4.499751e-03
-4.499751e-03
-4.499751e-03
-4.499751e-03
-4.499751e-03
-4.499751e-03
-4.499751e-03
-4.499751e-03
-4.499751e-03
-4.499751e-03
-4.499751e-03
-4.499751e-03
-4.499751e-03
-4.499751e-03
-4.499751e-03
-4.499751e-03
-4.499751e-03
-4.499751e-03
-4.499751e-03
-4.499751e-03
-4.499751e-03
1.329429e-04
4.250562e-04
7.046093e-04
9.877193e-04
1.269655e-03
1.551006e-03
1.830754e-03
2.108240e-03
2.382685e-03
2.653352e-03
2.919526e-03
3.180608e-03
3.436252e-03
3.686295e-03
3.930490e-03
4.168406e-03
4.399419e-03
4.622719e-03
4.837383e-03
5.042455e-03
5.236993e-03
5.420048e-03
5.590820e-03
5.748208e-03
5.893063e-03
6.033154e-03
6.173898e-03
6.314785e-03
6.455832e-03
6.596627e-03
6.736604e-03
6.875062e-03
7.011260e-03
7.144448e-03
7.273882e-03
7.398855e-03
7.518769e-03
7.633279e-03
7.742225e-03
7.845362e-03
7.942263e-03
8.032307e-03
8.114693e-03
8.188491e-03
8.252782e-03
8.306513e-03
8.349167e-03
8.378353e-03
8.398926e-03
8.389515e-03
8.530074e-03
8.825989e-03
9.104523e-03
9.387906e-03
9.669769e-03
9.951139e-03
1.023088e-02
1.050837e-02
1.078281e-02
1.105348e-02
1.131966e-02
1.158074e-02
1.183638e-02
1.208642e-02
1.233062e-02
1.256853e-02
1.279955e-02
1.302285e-02
1.323751e-02
1.344258e-02
1.363712e-02
1.382018e-02
1.399095e-02
1.414834e-02
1.429319e-02
1.443328e-02
1.457403e-02
1.471491e-02
1.485596e-02
1.499676e-02
1.513673e-02
1.527519e-02
1.541139e-02
1.554458e-02
1.567401e-02
1.579898e-02
1.591890e-02
1.603341e-02
1.614234e-02
1.624555e-02
1.634218e-02
1.643321e-02
1.651194e-02
1.659939e-02
1.661271e-02
1.685669e-02
1.618931e-02
1.886837e-02
8.999502e-03

CELL_DATA 200
SCALARS mat_id int 1
LOOKUP_TABLE default
1
1
1
1
1
1
1
1
1
1
1
1
1
1
1
1
1
1
1
1
1
1
1
1
1
1
1
1
1
1
1
1
1
1
1
1
1
1
1
1
1
1
1
1
1
1
1
1
1
1
1
1
1
1
1
1
1
1
1
1
1
1
1
1
1
1
1
1
1
1
1
1
1
1
1
1
1
1
1
1
1
1
1
1
1
1
1
1
1
1
1
1
1
1
1
1
1
1
1
1
2
2
2
2
2
2
2
2
2
2
2
2
2
2
2
2
2
2
2
2
2
2
2
2
2
2
2
2
2
2
2
2
2
2
2
2
2
2
2
2
2
2
2
2
2
2
2
2
2
2
2
2
2
2
2
2
2
2
2
2
2
2
2
2
2
2
2
2
2
2
2
2
2
2
2
2
2
2
2
2
2
2
2
2
2
2
2
2
2
2
2
2
2
2
2
2
2
2
2
2
