# vtk DataFile Version 2.0
step 23 time 9.583333e-02 normalized time 9.583333e-01, generated by simple.py
ASCII
DATASET UNSTRUCTURED_GRID

POINTS 201 float
0.000000e+00 0.000000e+00 0.000000e+00
1.000000e+00 0.000000e+00 0.000000e+00
2.000000e+00 0.000000e+00 0.000000e+00
1.000000e-02 0.000000e+00 0.000000e+00
2.000000e-02 0.000000e+00 0.000000e+00
3.000000e-02 0.000000e+00 0.000000e+00
4.000000e-02 0.000000e+00 0.000000e+00
5.000000e-02 0.000000e+00 0.000000e+00
6.000000e-02 0.000000e+00 0.000000e+00
7.000000e-02 0.000000e+00 0.000000e+00
8.000000e-02 0.000000e+00 0.000000e+00
9.000000e-02 0.000000e+00 0.000000e+00
1.000000e-01 0.000000e+00 0.000000e+00
1.100000e-01 0.000000e+00 0.000000e+00
1.200000e-01 0.000000e+00 0.000000e+00
1.300000e-01 0.000000e+00 0.000000e+00
1.400000e-01 0.000000e+00 0.000000e+00
1.500000e-01 0.000000e+00 0.000000e+00
1.600000e-01 0.000000e+00 0.000000e+00
1.700000e-01 0.000000e+00 0.000000e+00
1.800000e-01 0.000000e+00 0.000000e+00
1.900000e-01 0.000000e+00 0.000000e+00
2.000000e-01 0.000000e+00 0.000000e+00
2.100000e-01 0.000000e+00 0.000000e+00
2.200000e-01 0.000000e+00 0.000000e+00
2.300000e-01 0.000000e+00 0.000000e+00
2.400000e-01 0.000000e+00 0.000000e+00
2.500000e-01 0.000000e+00 0.000000e+00
2.600000e-01 0.000000e+00 0.000000e+00
2.700000e-01 0.000000e+00 0.000000e+00
2.800000e-01 0.000000e+00 0.000000e+00
2.900000e-01 0.000000e+00 0.000000e+00
3.000000e-01 0.000000e+00 0.000000e+00
3.100000e-01 0.000000e+00 0.000000e+00
3.200000e-01 0.000000e+00 0.000000e+00
3.300000e-01 0.000000e+00 0.000000e+00
3.400000e-01 0.000000e+00 0.000000e+00
3.500000e-01 0.000000e+00 0.000000e+00
3.600000e-01 0.000000e+00 0.000000e+00
3.700000e-01 0.000000e+00 0.000000e+00
3.800000e-01 0.000000e+00 0.000000e+00
3.900000e-01 0.000000e+00 0.000000e+00
4.000000e-01 0.000000e+00 0.000000e+00
4.100000e-01 0.000000e+00 0.000000e+00
4.200000e-01 0.000000e+00 0.000000e+00
4.300000e-01 0.000000e+00 0.000000e+00
4.400000e-01 0.000000e+00 0.000000e+00
4.500000e-01 0.000000e+00 0.000000e+00
4.600000e-01 0.000000e+00 0.000000e+00
4.700000e-01 0.000000e+00 0.000000e+00
4.800000e-01 0.000000e+00 0.000000e+00
4.900000e-01 0.000000e+00 0.000000e+00
5.000000e-01 0.000000e+00 0.000000e+00
5.100000e-01 0.000000e+00 0.000000e+00
5.200000e-01 0.000000e+00 0.000000e+00
5.300000e-01 0.000000e+00 0.000000e+00
5.400000e-01 0.000000e+00 0.000000e+00
5.500000e-01 0.000000e+00 0.000000e+00
5.600000e-01 0.000000e+00 0.000000e+00
5.700000e-01 0.000000e+00 0.000000e+00
5.800000e-01 0.000000e+00 0.000000e+00
5.900000e-01 0.000000e+00 0.000000e+00
6.000000e-01 0.000000e+00 0.000000e+00
6.100000e-01 0.000000e+00 0.000000e+00
6.200000e-01 0.000000e+00 0.000000e+00
6.300000e-01 0.000000e+00 0.000000e+00
6.400000e-01 0.000000e+00 0.000000e+00
6.500000e-01 0.000000e+00 0.000000e+00
6.600000e-01 0.000000e+00 0.000000e+00
6.700000e-01 0.000000e+00 0.000000e+00
6.800000e-01 0.000000e+00 0.000000e+00
6.900000e-01 0.000000e+00 0.000000e+00
7.000000e-01 0.000000e+00 0.000000e+00
7.100000e-01 0.000000e+00 0.000000e+00
7.200000e-01 0.000000e+00 0.000000e+00
7.300000e-01 0.000000e+00 0.000000e+00
7.400000e-01 0.000000e+00 0.000000e+00
7.500000e-01 0.000000e+00 0.000000e+00
7.600000e-01 0.000000e+00 0.000000e+00
7.700000e-01 0.000000e+00 0.000000e+00
7.800000e-01 0.000000e+00 0.000000e+00
7.900000e-01 0.000000e+00 0.000000e+00
8.000000e-01 0.000000e+00 0.000000e+00
8.100000e-01 0.000000e+00 0.000000e+00
8.200000e-01 0.000000e+00 0.000000e+00
8.300000e-01 0.000000e+00 0.000000e+00
8.400000e-01 0.000000e+00 0.000000e+00
8.500000e-01 0.000000e+00 0.000000e+00
8.600000e-01 0.000000e+00 0.000000e+00
8.700000e-01 0.000000e+00 0.000000e+00
8.800000e-01 0.000000e+00 0.000000e+00
8.900000e-01 0.000000e+00 0.000000e+00
9.000000e-01 0.000000e+00 0.000000e+00
9.100000e-01 0.000000e+00 0.000000e+00
9.200000e-01 0.000000e+00 0.000000e+00
9.300000e-01 0.000000e+00 0.000000e+00
9.400000e-01 0.000000e+00 0.000000e+00
9.500000e-01 0.000000e+00 0.000000e+00
9.600000e-01 0.000000e+00 0.000000e+00
9.700000e-01 0.000000e+00 0.000000e+00
9.800000e-01 0.000000e+00 0.000000e+00
9.900000e-01 0.000000e+00 0.000000e+00
1.010000e+00 0.000000e+00 0.000000e+00
1.020000e+00 0.000000e+00 0.000000e+00
1.030000e+00 0.000000e+00 0.000000e+00
1.040000e+00 0.000000e+00 0.000000e+00
1.050000e+00 0.000000e+00 0.000000e+00
1.060000e+00 0.000000e+00 0.000000e+00
1.070000e+00 0.000000e+00 0.000000e+00
1.080000e+00 0.000000e+00 0.000000e+00
1.090000e+00 0.000000e+00 0.000000e+00
1.100000e+00 0.000000e+00 0.000000e+00
1.110000e+00 0.000000e+00 0.000000e+00
1.120000e+00 0.000000e+00 0.000000e+00
1.130000e+00 0.000000e+00 0.000000e+00
1.140000e+00 0.000000e+00 0.000000e+00
1.150000e+00 0.000000e+00 0.000000e+00
1.160000e+00 0.000000e+00 0.000000e+00
1.170000e+00 0.000000e+00 0.000000e+00
1.180000e+00 0.000000e+00 0.000000e+00
1.190000e+00 0.000000e+00 0.000000e+00
1.200000e+00 0.000000e+00 0.000000e+00
1.210000e+00 0.000000e+00 0.000000e+00
1.220000e+00 0.000000e+00 0.000000e+00
1.230000e+00 0.000000e+00 0.000000e+00
1.240000e+00 0.000000e+00 0.000000e+00
1.250000e+00 0.000000e+00 0.000000e+00
1.260000e+00 0.000000e+00 0.000000e+00
1.270000e+00 0.000000e+00 0.000000e+00
1.280000e+00 0.000000e+00 0.000000e+00
1.290000e+00 0.000000e+00 0.000000e+00
1.300000e+00 0.000000e+00 0.000000e+00
1.310000e+00 0.000000e+00 0.000000e+00
1.320000e+00 0.000000e+00 0.000000e+00
1.330000e+00 0.000000e+00 0.000000e+00
1.340000e+00 0.000000e+00 0.000000e+00
1.350000e+00 0.000000e+00 0.000000e+00
1.360000e+00 0.000000e+00 0.000000e+00
1.370000e+00 0.000000e+00 0.000000e+00
1.380000e+00 0.000000e+00 0.000000e+00
1.390000e+00 0.000000e+00 0.000000e+00
1.400000e+00 0.000000e+00 0.000000e+00
1.410000e+00 0.000000e+00 0.000000e+00
1.420000e+00 0.000000e+00 0.000000e+00
1.430000e+00 0.000000e+00 0.000000e+00
1.440000e+00 0.000000e+00 0.000000e+00
1.450000e+00 0.000000e+00 0.000000e+00
1.460000e+00 0.000000e+00 0.000000e+00
1.470000e+00 0.000000e+00 0.000000e+00
1.480000e+00 0.000000e+00 0.000000e+00
1.490000e+00 0.000000e+00 0.000000e+00
1.500000e+00 0.000000e+00 0.000000e+00
1.510000e+00 0.000000e+00 0.000000e+00
1.520000e+00 0.000000e+00 0.000000e+00
1.530000e+00 0.000000e+00 0.000000e+00
1.540000e+00 0.000000e+00 0.000000e+00
1.550000e+00 0.000000e+00 0.000000e+00
1.560000e+00 0.000000e+00 0.000000e+00
1.570000e+00 0.000000e+00 0.000000e+00
1.580000e+00 0.000000e+00 0.000000e+00
1.590000e+00 0.000000e+00 0.000000e+00
1.600000e+00 0.000000e+00 0.000000e+00
1.610000e+00 0.000000e+00 0.000000e+00
1.620000e+00 0.000000e+00 0.000000e+00
1.630000e+00 0.000000e+00 0.000000e+00
1.640000e+00 0.000000e+00 0.000000e+00
1.650000e+00 0.000000e+00 0.000000e+00
1.660000e+00 0.000000e+00 0.000000e+00
1.670000e+00 0.000000e+00 0.000000e+00
1.680000e+00 0.000000e+00 0.000000e+00
1.690000e+00 0.000000e+00 0.000000e+00
1.700000e+00 0.000000e+00 0.000000e+00
1.710000e+00 0.000000e+00 0.000000e+00
1.720000e+00 0.000000e+00 0.000000e+00
1.730000e+00 0.000000e+00 0.000000e+00
1.740000e+00 0.000000e+00 0.000000e+00
1.750000e+00 0.000000e+00 0.000000e+00
1.760000e+00 0.000000e+00 0.000000e+00
1.770000e+00 0.000000e+00 0.000000e+00
1.780000e+00 0.000000e+00 0.000000e+00
1.790000e+00 0.000000e+00 0.000000e+00
1.800000e+00 0.000000e+00 0.000000e+00
1.810000e+00 0.000000e+00 0.000000e+00
1.820000e+00 0.000000e+00 0.000000e+00
1.830000e+00 0.000000e+00 0.000000e+00
1.840000e+00 0.000000e+00 0.000000e+00
1.850000e+00 0.000000e+00 0.000000e+00
1.860000e+00 0.000000e+00 0.000000e+00
1.870000e+00 0.000000e+00 0.000000e+00
1.880000e+00 0.000000e+00 0.000000e+00
1.890000e+00 0.000000e+00 0.000000e+00
1.900000e+00 0.000000e+00 0.000000e+00
1.910000e+00 0.000000e+00 0.000000e+00
1.920000e+00 0.000000e+00 0.000000e+00
1.930000e+00 0.000000e+00 0.000000e+00
1.940000e+00 0.000000e+00 0.000000e+00
1.950000e+00 0.000000e+00 0.000000e+00
1.960000e+00 0.000000e+00 0.000000e+00
1.970000e+00 0.000000e+00 0.000000e+00
1.980000e+00 0.000000e+00 0.000000e+00
1.990000e+00 0.000000e+00 0.000000e+00

CELLS 200 600
2 0 3 
2 3 4 
2 4 5 
2 5 6 
2 6 7 
2 7 8 
2 8 9 
2 9 10 
2 10 11 
2 11 12 
2 12 13 
2 13 14 
2 14 15 
2 15 16 
2 16 17 
2 17 18 
2 18 19 
2 19 20 
2 20 21 
2 21 22 
2 22 23 
2 23 24 
2 24 25 
2 25 26 
2 26 27 
2 27 28 
2 28 29 
2 29 30 
2 30 31 
2 31 32 
2 32 33 
2 33 34 
2 34 35 
2 35 36 
2 36 37 
2 37 38 
2 38 39 
2 39 40 
2 40 41 
2 41 42 
2 42 43 
2 43 44 
2 44 45 
2 45 46 
2 46 47 
2 47 48 
2 48 49 
2 49 50 
2 50 51 
2 51 52 
2 52 53 
2 53 54 
2 54 55 
2 55 56 
2 56 57 
2 57 58 
2 58 59 
2 59 60 
2 60 61 
2 61 62 
2 62 63 
2 63 64 
2 64 65 
2 65 66 
2 66 67 
2 67 68 
2 68 69 
2 69 70 
2 70 71 
2 71 72 
2 72 73 
2 73 74 
2 74 75 
2 75 76 
2 76 77 
2 77 78 
2 78 79 
2 79 80 
2 80 81 
2 81 82 
2 82 83 
2 83 84 
2 84 85 
2 85 86 
2 86 87 
2 87 88 
2 88 89 
2 89 90 
2 90 91 
2 91 92 
2 92 93 
2 93 94 
2 94 95 
2 95 96 
2 96 97 
2 97 98 
2 98 99 
2 99 100 
2 100 101 
2 101 1 
2 1 102 
2 102 103 
2 103 104 
2 104 105 
2 105 106 
2 106 107 
2 107 108 
2 108 109 
2 109 110 
2 110 111 
2 111 112 
2 112 113 
2 113 114 
2 114 115 
2 115 116 
2 116 117 
2 117 118 
2 118 119 
2 119 120 
2 120 121 
2 121 122 
2 122 123 
2 123 124 
2 124 125 
2 125 126 
2 126 127 
2 127 128 
2 128 129 
2 129 130 
2 130 131 
2 131 132 
2 132 133 
2 133 134 
2 134 135 
2 135 136 
2 136 137 
2 137 138 
2 138 139 
2 139 140 
2 140 141 
2 141 142 
2 142 143 
2 143 144 
2 144 145 
2 145 146 
2 146 147 
2 147 148 
2 148 149 
2 149 150 
2 150 151 
2 151 152 
2 152 153 
2 153 154 
2 154 155 
2 155 156 
2 156 157 
2 157 158 
2 158 159 
2 159 160 
2 160 161 
2 161 162 
2 162 163 
2 163 164 
2 164 165 
2 165 166 
2 166 167 
2 167 168 
2 168 169 
2 169 170 
2 170 171 
2 171 172 
2 172 173 
2 173 174 
2 174 175 
2 175 176 
2 176 177 
2 177 178 
2 178 179 
2 179 180 
2 180 181 
2 181 182 
2 182 183 
2 183 184 
2 184 185 
2 185 186 
2 186 187 
2 187 188 
2 188 189 
2 189 190 
2 190 191 
2 191 192 
2 192 193 
2 193 194 
2 194 195 
2 195 196 
2 196 197 
2 197 198 
2 198 199 
2 199 200 
2 200 2 

CELL_TYPES 200
3
3
3
3
3
3
3
3
3
3
3
3
3
3
3
3
3
3
3
3
3
3
3
3
3
3
3
3
3
3
3
3
3
3
3
3
3
3
3
3
3
3
3
3
3
3
3
3
3
3
3
3
3
3
3
3
3
3
3
3
3
3
3
3
3
3
3
3
3
3
3
3
3
3
3
3
3
3
3
3
3
3
3
3
3
3
3
3
3
3
3
3
3
3
3
3
3
3
3
3
3
3
3
3
3
3
3
3
3
3
3
3
3
3
3
3
3
3
3
3
3
3
3
3
3
3
3
3
3
3
3
3
3
3
3
3
3
3
3
3
3
3
3
3
3
3
3
3
3
3
3
3
3
3
3
3
3
3
3
3
3
3
3
3
3
3
3
3
3
3
3
3
3
3
3
3
3
3
3
3
3
3
3
3
3
3
3
3
3
3
3
3
3
3
3
3
3
3
3
3

POINT_DATA 201

SCALARS node_groups int 1
LOOKUP_TABLE default
1
2
3
1
1
1
1
1
1
1
1
1
1
1
1
1
1
1
1
1
1
1
1
1
1
1
1
1
1
1
1
1
1
1
1
1
1
1
1
1
1
1
1
1
1
1
1
1
1
1
1
1
1
1
1
1
1
1
1
1
1
1
1
1
1
1
1
1
1
1
1
1
1
1
1
1
1
1
1
1
1
1
1
1
1
1
1
1
1
1
1
1
1
1
1
1
1
1
1
1
1
1
2
2
2
2
2
2
2
2
2
2
2
2
2
2
2
2
2
2
2
2
2
2
2
2
2
2
2
2
2
2
2
2
2
2
2
2
2
2
2
2
2
2
2
2
2
2
2
2
2
2
2
2
2
2
2
2
2
2
2
2
2
2
2
2
2
2
2
2
2
2
2
2
2
2
2
2
2
2
2
2
2
2
2
2
2
2
2
2
2
2
2
2
2
2
2
2
2
2
2

SCALARS phil float 1
LOOKUP_TABLE default
0.000000e+00
-7.517218e-02
-1.191217e-01
-7.517218e-04
-1.503444e-03
-2.255165e-03
-3.006887e-03
-3.758609e-03
-4.510331e-03
-5.262052e-03
-6.013774e-03
-6.765496e-03
-7.517218e-03
-8.268939e-03
-9.020661e-03
-9.772383e-03
-1.052410e-02
-1.127583e-02
-1.202755e-02
-1.277927e-02
-1.353099e-02
-1.428271e-02
-1.503444e-02
-1.578616e-02
-1.653788e-02
-1.728960e-02
-1.804132e-02
-1.879304e-02
-1.954477e-02
-2.029649e-02
-2.104821e-02
-2.179993e-02
-2.255165e-02
-2.330337e-02
-2.405510e-02
-2.480682e-02
-2.555854e-02
-2.631026e-02
-2.706198e-02
-2.781371e-02
-2.856543e-02
-2.931715e-02
-3.006887e-02
-3.082059e-02
-3.157231e-02
-3.232404e-02
-3.307576e-02
-3.382748e-02
-3.457920e-02
-3.533092e-02
-3.608264e-02
-3.683437e-02
-3.758609e-02
-3.833781e-02
-3.908953e-02
-3.984125e-02
-4.059298e-02
-4.134470e-02
-4.209642e-02
-4.284814e-02
-4.359986e-02
-4.435158e-02
-4.510331e-02
-4.585503e-02
-4.660675e-02
-4.735847e-02
-4.811019e-02
-4.886191e-02
-4.961364e-02
-5.036536e-02
-5.111708e-02
-5.186880e-02
-5.262052e-02
-5.337224e-02
-5.412397e-02
-5.487569e-02
-5.562741e-02
-5.637913e-02
-5.713085e-02
-5.788258e-02
-5.863430e-02
-5.938602e-02
-6.013774e-02
-6.088946e-02
-6.164118e-02
-6.239291e-02
-6.314463e-02
-6.389635e-02
-6.464807e-02
-6.539979e-02
-6.615151e-02
-6.690324e-02
-6.765496e-02
-6.840668e-02
-6.915840e-02
-6.991012e-02
-7.066185e-02
-7.141357e-02
-7.216529e-02
-7.291701e-02
-7.366873e-02
-7.442045e-02
-7.592380e-02
-7.667490e-02
-7.742497e-02
-7.817351e-02
-7.892008e-02
-7.966422e-02
-8.040554e-02
-8.114366e-02
-8.187821e-02
-8.260886e-02
-8.333531e-02
-8.405729e-02
-8.477456e-02
-8.548691e-02
-8.619413e-02
-8.689603e-02
-8.759241e-02
-8.828310e-02
-8.896795e-02
-8.964679e-02
-9.031952e-02
-9.098602e-02
-9.164620e-02
-9.230000e-02
-9.294739e-02
-9.358829e-02
-9.422238e-02
-9.484928e-02
-9.546864e-02
-9.608010e-02
-9.668331e-02
-9.727796e-02
-9.786374e-02
-9.844035e-02
-9.900751e-02
-9.956499e-02
-1.001125e-01
-1.006500e-01
-1.011771e-01
-1.016938e-01
-1.021997e-01
-1.026948e-01
-1.031788e-01
-1.036515e-01
-1.041129e-01
-1.045627e-01
-1.050008e-01
-1.054271e-01
-1.058416e-01
-1.062441e-01
-1.066406e-01
-1.070365e-01
-1.074315e-01
-1.078250e-01
-1.082165e-01
-1.086057e-01
-1.089921e-01
-1.093754e-01
-1.097551e-01
-1.101309e-01
-1.105026e-01
-1.108697e-01
-1.112321e-01
-1.115895e-01
-1.119416e-01
-1.122883e-01
-1.126294e-01
-1.129645e-01
-1.132936e-01
-1.136165e-01
-1.139329e-01
-1.142427e-01
-1.145459e-01
-1.148423e-01
-1.151319e-01
-1.154144e-01
-1.156897e-01
-1.159571e-01
-1.162164e-01
-1.164669e-01
-1.167084e-01
-1.169405e-01
-1.171627e-01
-1.173746e-01
-1.175760e-01
-1.177664e-01
-1.179456e-01
-1.181133e-01
-1.182691e-01
-1.184129e-01
-1.185443e-01
-1.186630e-01
-1.187686e-01
-1.188610e-01
-1.189399e-01
-1.190048e-01
-1.190557e-01
-1.190923e-01
-1.191144e-01

SCALARS phis float 1
LOOKUP_TABLE default
7.000000e-01
7.625766e-01
7.000000e-01
7.000000e-01
7.000000e-01
7.000000e-01
7.000000e-01
7.000000e-01
7.000000e-01
7.000000e-01
7.000000e-01
7.000000e-01
7.000000e-01
7.000000e-01
7.000000e-01
7.000000e-01
7.000000e-01
7.000000e-01
7.000000e-01
7.000000e-01
7.000000e-01
7.000000e-01
7.000000e-01
7.000000e-01
7.000000e-01
7.000000e-01
7.000000e-01
7.000000e-01
7.000000e-01
7.000000e-01
7.000000e-01
7.000000e-01
7.000000e-01
7.000000e-01
7.000000e-01
7.000000e-01
7.000000e-01
7.000000e-01
7.000000e-01
7.000000e-01
7.000000e-01
7.000000e-01
7.000000e-01
7.000000e-01
7.000000e-01
7.000000e-01
7.000000e-01
7.000000e-01
7.000000e-01
7.000000e-01
7.000000e-01
7.000000e-01
7.000000e-01
7.000000e-01
7.000000e-01
7.000000e-01
7.000000e-01
7.000000e-01
7.000000e-01
7.000000e-01
7.000000e-01
7.000000e-01
7.000000e-01
7.000000e-01
7.000000e-01
7.000000e-01
7.000000e-01
7.000000e-01
7.000000e-01
7.000000e-01
7.000000e-01
7.000000e-01
7.000000e-01
7.000000e-01
7.000000e-01
7.000000e-01
7.000000e-01
7.000000e-01
7.000000e-01
7.000000e-01
7.000000e-01
7.000000e-01
7.000000e-01
7.000000e-01
7.000000e-01
7.000000e-01
7.000000e-01
7.000000e-01
7.000000e-01
7.000000e-01
7.000000e-01
7.000000e-01
7.000000e-01
7.000000e-01
7.000000e-01
7.000000e-01
7.000000e-01
7.000000e-01
7.000000e-01
7.000000e-01
7.000000e-01
7.000000e-01
7.625745e-01
7.625546e-01
7.625149e-01
7.624555e-01
7.623766e-01
7.622783e-01
7.621609e-01
7.620246e-01
7.618698e-01
7.616967e-01
7.615057e-01
7.612970e-01
7.610711e-01
7.608284e-01
7.605691e-01
7.602938e-01
7.600030e-01
7.596971e-01
7.593768e-01
7.590427e-01
7.586953e-01
7.583354e-01
7.579635e-01
7.575805e-01
7.571869e-01
7.567833e-01
7.563698e-01
7.559463e-01
7.555131e-01
7.550703e-01
7.546181e-01
7.541567e-01
7.536864e-01
7.532074e-01
7.527201e-01
7.522249e-01
7.517219e-01
7.512117e-01
7.506945e-01
7.501708e-01
7.496410e-01
7.491056e-01
7.485651e-01
7.480201e-01
7.474713e-01
7.469192e-01
7.463645e-01
7.458078e-01
7.452499e-01
7.446915e-01
7.441310e-01
7.435526e-01
7.429544e-01
7.423366e-01
7.416992e-01
7.410424e-01
7.403665e-01
7.396718e-01
7.389585e-01
7.382269e-01
7.374774e-01
7.367104e-01
7.359260e-01
7.351248e-01
7.343071e-01
7.334733e-01
7.326240e-01
7.317597e-01
7.308809e-01
7.299883e-01
7.290824e-01
7.281640e-01
7.272337e-01
7.262922e-01
7.253402e-01
7.243781e-01
7.234061e-01
7.224242e-01
7.214325e-01
7.204313e-01
7.194206e-01
7.184007e-01
7.173719e-01
7.163345e-01
7.152887e-01
7.142350e-01
7.131736e-01
7.121049e-01
7.110292e-01
7.099470e-01
7.088588e-01
7.077649e-01
7.066659e-01
7.055625e-01
7.044552e-01
7.033446e-01
7.022314e-01
7.011163e-01
7.000000e-01

SCALARS il float 1
LOOKUP_TABLE default
-7.517218e-02
-7.517187e-02
-4.252093e-04
-7.517218e-02
-7.517218e-02
-7.517218e-02
-7.517218e-02
-7.517218e-02
-7.517218e-02
-7.517218e-02
-7.517218e-02
-7.517218e-02
-7.517218e-02
-7.517218e-02
-7.517218e-02
-7.517218e-02
-7.517218e-02
-7.517218e-02
-7.517218e-02
-7.517218e-02
-7.517218e-02
-7.517218e-02
-7.517218e-02
-7.517218e-02
-7.517218e-02
-7.517218e-02
-7.517218e-02
-7.517218e-02
-7.517218e-02
-7.517218e-02
-7.517218e-02
-7.517218e-02
-7.517218e-02
-7.517218e-02
-7.517218e-02
-7.517218e-02
-7.517218e-02
-7.517218e-02
-7.517218e-02
-7.517218e-02
-7.517218e-02
-7.517218e-02
-7.517218e-02
-7.517218e-02
-7.517218e-02
-7.517218e-02
-7.517218e-02
-7.517218e-02
-7.517218e-02
-7.517218e-02
-7.517218e-02
-7.517218e-02
-7.517218e-02
-7.517218e-02
-7.517218e-02
-7.517218e-02
-7.517218e-02
-7.517218e-02
-7.517218e-02
-7.517218e-02
-7.517218e-02
-7.517218e-02
-7.517218e-02
-7.517218e-02
-7.517218e-02
-7.517218e-02
-7.517218e-02
-7.517218e-02
-7.517218e-02
-7.517218e-02
-7.517218e-02
-7.517218e-02
-7.517218e-02
-7.517218e-02
-7.517218e-02
-7.517218e-02
-7.517218e-02
-7.517218e-02
-7.517218e-02
-7.517218e-02
-7.517218e-02
-7.517218e-02
-7.517218e-02
-7.517218e-02
-7.517218e-02
-7.517218e-02
-7.517218e-02
-7.517218e-02
-7.517218e-02
-7.517218e-02
-7.517218e-02
-7.517218e-02
-7.517218e-02
-7.517218e-02
-7.517218e-02
-7.517218e-02
-7.517218e-02
-7.517218e-02
-7.517217e-02
-7.517218e-02
-7.517215e-02
-7.517226e-02
-7.514499e-02
-7.506663e-02
-7.493834e-02
-7.476274e-02
-7.454241e-02
-7.428004e-02
-7.397809e-02
-7.363893e-02
-7.326519e-02
-7.285976e-02
-7.242570e-02
-7.196621e-02
-7.148442e-02
-7.098205e-02
-7.045935e-02
-6.991706e-02
-6.935654e-02
-6.877928e-02
-6.818682e-02
-6.758074e-02
-6.696282e-02
-6.633514e-02
-6.570001e-02
-6.506007e-02
-6.441757e-02
-6.375557e-02
-6.305600e-02
-6.231918e-02
-6.154641e-02
-6.073901e-02
-5.989850e-02
-5.902633e-02
-5.812399e-02
-5.719325e-02
-5.623620e-02
-5.525519e-02
-5.425272e-02
-5.323141e-02
-5.219221e-02
-5.113345e-02
-5.005448e-02
-4.895646e-02
-4.784043e-02
-4.670778e-02
-4.555934e-02
-4.439849e-02
-4.322044e-02
-4.205269e-02
-4.080366e-02
-3.982750e-02
-3.958286e-02
-3.956613e-02
-3.942643e-02
-3.926013e-02
-3.904405e-02
-3.878718e-02
-3.848976e-02
-3.815426e-02
-3.778283e-02
-3.737806e-02
-3.694274e-02
-3.647982e-02
-3.599222e-02
-3.548147e-02
-3.494762e-02
-3.439120e-02
-3.381340e-02
-3.321557e-02
-3.259911e-02
-3.196551e-02
-3.131644e-02
-3.065397e-02
-2.998038e-02
-2.929837e-02
-2.861026e-02
-2.789780e-02
-2.714131e-02
-2.634073e-02
-2.549703e-02
-2.461123e-02
-2.368458e-02
-2.271827e-02
-2.171353e-02
-2.067192e-02
-1.959540e-02
-1.848620e-02
-1.734681e-02
-1.617987e-02
-1.498604e-02
-1.376253e-02
-1.250785e-02
-1.122288e-02
-9.908311e-03
-8.565458e-03
-7.194161e-03
-5.800263e-03
-4.368953e-03
-2.964758e-03
-1.358107e-03

SCALARS is float 1
LOOKUP_TABLE default
-2.991852e-01
-1.538626e-03
-2.991852e-01
-2.991852e-01
-2.991852e-01
-2.991852e-01
-2.991852e-01
-2.991852e-01
-2.991852e-01
-2.991852e-01
-2.991852e-01
-2.991852e-01
-2.991852e-01
-2.991852e-01
-2.991852e-01
-2.991852e-01
-2.991852e-01
-2.991852e-01
-2.991852e-01
-2.991852e-01
-2.991852e-01
-2.991852e-01
-2.991852e-01
-2.991852e-01
-2.991852e-01
-2.991852e-01
-2.991852e-01
-2.991852e-01
-2.991852e-01
-2.991852e-01
-2.991852e-01
-2.991852e-01
-2.991852e-01
-2.991852e-01
-2.991852e-01
-2.991852e-01
-2.991852e-01
-2.991852e-01
-2.991852e-01
-2.991852e-01
-2.991852e-01
-2.991852e-01
-2.991852e-01
-2.991852e-01
-2.991852e-01
-2.991852e-01
-2.991852e-01
-2.991852e-01
-2.991852e-01
-2.991852e-01
-2.991852e-01
-2.991852e-01
-2.991852e-01
-2.991852e-01
-2.991852e-01
-2.991852e-01
-2.991852e-01
-2.991852e-01
-2.991852e-01
-2.991852e-01
-2.991852e-01
-2.991852e-01
-2.991852e-01
-2.991852e-01
-2.991852e-01
-2.991852e-01
-2.991852e-01
-2.991852e-01
-2.991852e-01
-2.991852e-01
-2.991852e-01
-2.991852e-01
-2.991852e-01
-2.991852e-01
-2.991852e-01
-2.991852e-01
-2.991852e-01
-2.991852e-01
-2.991852e-01
-2.991852e-01
-2.991852e-01
-2.991852e-01
-2.991852e-01
-2.991852e-01
-2.991852e-01
-2.991852e-01
-2.991852e-01
-2.991852e-01
-2.991852e-01
-2.991852e-01
-2.991852e-01
-2.991852e-01
-2.991852e-01
-2.991852e-01
-2.991852e-01
-2.991852e-01
-2.991852e-01
-2.991852e-01
-2.991852e-01
-2.991852e-01
-2.991852e-01
-2.991852e-01
9.384899e-03
2.995907e-02
4.953434e-02
6.921488e-02
8.865101e-02
1.078888e-01
1.268760e-01
1.455927e-01
1.640136e-01
1.821183e-01
1.998891e-01
2.173134e-01
2.343843e-01
2.510789e-01
2.673512e-01
2.831538e-01
2.984431e-01
3.131798e-01
3.273305e-01
3.408674e-01
3.537662e-01
3.660031e-01
3.775630e-01
3.884142e-01
3.986199e-01
4.085728e-01
4.185061e-01
4.283402e-01
4.380377e-01
4.475545e-01
4.568547e-01
4.659077e-01
4.746877e-01
4.831708e-01
4.913361e-01
4.991659e-01
5.066476e-01
5.137741e-01
5.205225e-01
5.268467e-01
5.326988e-01
5.380351e-01
5.428163e-01
5.470083e-01
5.505852e-01
5.535146e-01
5.558026e-01
5.573216e-01
5.584600e-01
5.577122e-01
5.676414e-01
5.884820e-01
6.079859e-01
6.276856e-01
6.471166e-01
6.663558e-01
6.853426e-01
7.040593e-01
7.224802e-01
7.405849e-01
7.583557e-01
7.757801e-01
7.928510e-01
8.095455e-01
8.258179e-01
8.416204e-01
8.569097e-01
8.716464e-01
8.857971e-01
8.993340e-01
9.122329e-01
9.244698e-01
9.360297e-01
9.468808e-01
9.570865e-01
9.670394e-01
9.769727e-01
9.868068e-01
9.965043e-01
1.006021e+00
1.015321e+00
1.024374e+00
1.033154e+00
1.041637e+00
1.049803e+00
1.057633e+00
1.065114e+00
1.072241e+00
1.078988e+00
1.085317e+00
1.091152e+00
1.096553e+00
1.101091e+00
1.106191e+00
1.106379e+00
1.121957e+00
1.077039e+00
1.254735e+00
5.983703e-01

CELL_DATA 200
SCALARS mat_id int 1
LOOKUP_TABLE default
1
1
1
1
1
1
1
1
1
1
1
1
1
1
1
1
1
1
1
1
1
1
1
1
1
1
1
1
1
1
1
1
1
1
1
1
1
1
1
1
1
1
1
1
1
1
1
1
1
1
1
1
1
1
1
1
1
1
1
1
1
1
1
1
1
1
1
1
1
1
1
1
1
1
1
1
1
1
1
1
1
1
1
1
1
1
1
1
1
1
1
1
1
1
1
1
1
1
1
1
2
2
2
2
2
2
2
2
2
2
2
2
2
2
2
2
2
2
2
2
2
2
2
2
2
2
2
2
2
2
2
2
2
2
2
2
2
2
2
2
2
2
2
2
2
2
2
2
2
2
2
2
2
2
2
2
2
2
2
2
2
2
2
2
2
2
2
2
2
2
2
2
2
2
2
2
2
2
2
2
2
2
2
2
2
2
2
2
2
2
2
2
2
2
2
2
2
2
2
2
