# vtk DataFile Version 2.0
step 17 time 7.083333e-02 normalized time 7.083333e-01, generated by simple.py
ASCII
DATASET UNSTRUCTURED_GRID

POINTS 201 float
0.000000e+00 0.000000e+00 0.000000e+00
1.000000e+00 0.000000e+00 0.000000e+00
2.000000e+00 0.000000e+00 0.000000e+00
1.000000e-02 0.000000e+00 0.000000e+00
2.000000e-02 0.000000e+00 0.000000e+00
3.000000e-02 0.000000e+00 0.000000e+00
4.000000e-02 0.000000e+00 0.000000e+00
5.000000e-02 0.000000e+00 0.000000e+00
6.000000e-02 0.000000e+00 0.000000e+00
7.000000e-02 0.000000e+00 0.000000e+00
8.000000e-02 0.000000e+00 0.000000e+00
9.000000e-02 0.000000e+00 0.000000e+00
1.000000e-01 0.000000e+00 0.000000e+00
1.100000e-01 0.000000e+00 0.000000e+00
1.200000e-01 0.000000e+00 0.000000e+00
1.300000e-01 0.000000e+00 0.000000e+00
1.400000e-01 0.000000e+00 0.000000e+00
1.500000e-01 0.000000e+00 0.000000e+00
1.600000e-01 0.000000e+00 0.000000e+00
1.700000e-01 0.000000e+00 0.000000e+00
1.800000e-01 0.000000e+00 0.000000e+00
1.900000e-01 0.000000e+00 0.000000e+00
2.000000e-01 0.000000e+00 0.000000e+00
2.100000e-01 0.000000e+00 0.000000e+00
2.200000e-01 0.000000e+00 0.000000e+00
2.300000e-01 0.000000e+00 0.000000e+00
2.400000e-01 0.000000e+00 0.000000e+00
2.500000e-01 0.000000e+00 0.000000e+00
2.600000e-01 0.000000e+00 0.000000e+00
2.700000e-01 0.000000e+00 0.000000e+00
2.800000e-01 0.000000e+00 0.000000e+00
2.900000e-01 0.000000e+00 0.000000e+00
3.000000e-01 0.000000e+00 0.000000e+00
3.100000e-01 0.000000e+00 0.000000e+00
3.200000e-01 0.000000e+00 0.000000e+00
3.300000e-01 0.000000e+00 0.000000e+00
3.400000e-01 0.000000e+00 0.000000e+00
3.500000e-01 0.000000e+00 0.000000e+00
3.600000e-01 0.000000e+00 0.000000e+00
3.700000e-01 0.000000e+00 0.000000e+00
3.800000e-01 0.000000e+00 0.000000e+00
3.900000e-01 0.000000e+00 0.000000e+00
4.000000e-01 0.000000e+00 0.000000e+00
4.100000e-01 0.000000e+00 0.000000e+00
4.200000e-01 0.000000e+00 0.000000e+00
4.300000e-01 0.000000e+00 0.000000e+00
4.400000e-01 0.000000e+00 0.000000e+00
4.500000e-01 0.000000e+00 0.000000e+00
4.600000e-01 0.000000e+00 0.000000e+00
4.700000e-01 0.000000e+00 0.000000e+00
4.800000e-01 0.000000e+00 0.000000e+00
4.900000e-01 0.000000e+00 0.000000e+00
5.000000e-01 0.000000e+00 0.000000e+00
5.100000e-01 0.000000e+00 0.000000e+00
5.200000e-01 0.000000e+00 0.000000e+00
5.300000e-01 0.000000e+00 0.000000e+00
5.400000e-01 0.000000e+00 0.000000e+00
5.500000e-01 0.000000e+00 0.000000e+00
5.600000e-01 0.000000e+00 0.000000e+00
5.700000e-01 0.000000e+00 0.000000e+00
5.800000e-01 0.000000e+00 0.000000e+00
5.900000e-01 0.000000e+00 0.000000e+00
6.000000e-01 0.000000e+00 0.000000e+00
6.100000e-01 0.000000e+00 0.000000e+00
6.200000e-01 0.000000e+00 0.000000e+00
6.300000e-01 0.000000e+00 0.000000e+00
6.400000e-01 0.000000e+00 0.000000e+00
6.500000e-01 0.000000e+00 0.000000e+00
6.600000e-01 0.000000e+00 0.000000e+00
6.700000e-01 0.000000e+00 0.000000e+00
6.800000e-01 0.000000e+00 0.000000e+00
6.900000e-01 0.000000e+00 0.000000e+00
7.000000e-01 0.000000e+00 0.000000e+00
7.100000e-01 0.000000e+00 0.000000e+00
7.200000e-01 0.000000e+00 0.000000e+00
7.300000e-01 0.000000e+00 0.000000e+00
7.400000e-01 0.000000e+00 0.000000e+00
7.500000e-01 0.000000e+00 0.000000e+00
7.600000e-01 0.000000e+00 0.000000e+00
7.700000e-01 0.000000e+00 0.000000e+00
7.800000e-01 0.000000e+00 0.000000e+00
7.900000e-01 0.000000e+00 0.000000e+00
8.000000e-01 0.000000e+00 0.000000e+00
8.100000e-01 0.000000e+00 0.000000e+00
8.200000e-01 0.000000e+00 0.000000e+00
8.300000e-01 0.000000e+00 0.000000e+00
8.400000e-01 0.000000e+00 0.000000e+00
8.500000e-01 0.000000e+00 0.000000e+00
8.600000e-01 0.000000e+00 0.000000e+00
8.700000e-01 0.000000e+00 0.000000e+00
8.800000e-01 0.000000e+00 0.000000e+00
8.900000e-01 0.000000e+00 0.000000e+00
9.000000e-01 0.000000e+00 0.000000e+00
9.100000e-01 0.000000e+00 0.000000e+00
9.200000e-01 0.000000e+00 0.000000e+00
9.300000e-01 0.000000e+00 0.000000e+00
9.400000e-01 0.000000e+00 0.000000e+00
9.500000e-01 0.000000e+00 0.000000e+00
9.600000e-01 0.000000e+00 0.000000e+00
9.700000e-01 0.000000e+00 0.000000e+00
9.800000e-01 0.000000e+00 0.000000e+00
9.900000e-01 0.000000e+00 0.000000e+00
1.010000e+00 0.000000e+00 0.000000e+00
1.020000e+00 0.000000e+00 0.000000e+00
1.030000e+00 0.000000e+00 0.000000e+00
1.040000e+00 0.000000e+00 0.000000e+00
1.050000e+00 0.000000e+00 0.000000e+00
1.060000e+00 0.000000e+00 0.000000e+00
1.070000e+00 0.000000e+00 0.000000e+00
1.080000e+00 0.000000e+00 0.000000e+00
1.090000e+00 0.000000e+00 0.000000e+00
1.100000e+00 0.000000e+00 0.000000e+00
1.110000e+00 0.000000e+00 0.000000e+00
1.120000e+00 0.000000e+00 0.000000e+00
1.130000e+00 0.000000e+00 0.000000e+00
1.140000e+00 0.000000e+00 0.000000e+00
1.150000e+00 0.000000e+00 0.000000e+00
1.160000e+00 0.000000e+00 0.000000e+00
1.170000e+00 0.000000e+00 0.000000e+00
1.180000e+00 0.000000e+00 0.000000e+00
1.190000e+00 0.000000e+00 0.000000e+00
1.200000e+00 0.000000e+00 0.000000e+00
1.210000e+00 0.000000e+00 0.000000e+00
1.220000e+00 0.000000e+00 0.000000e+00
1.230000e+00 0.000000e+00 0.000000e+00
1.240000e+00 0.000000e+00 0.000000e+00
1.250000e+00 0.000000e+00 0.000000e+00
1.260000e+00 0.000000e+00 0.000000e+00
1.270000e+00 0.000000e+00 0.000000e+00
1.280000e+00 0.000000e+00 0.000000e+00
1.290000e+00 0.000000e+00 0.000000e+00
1.300000e+00 0.000000e+00 0.000000e+00
1.310000e+00 0.000000e+00 0.000000e+00
1.320000e+00 0.000000e+00 0.000000e+00
1.330000e+00 0.000000e+00 0.000000e+00
1.340000e+00 0.000000e+00 0.000000e+00
1.350000e+00 0.000000e+00 0.000000e+00
1.360000e+00 0.000000e+00 0.000000e+00
1.370000e+00 0.000000e+00 0.000000e+00
1.380000e+00 0.000000e+00 0.000000e+00
1.390000e+00 0.000000e+00 0.000000e+00
1.400000e+00 0.000000e+00 0.000000e+00
1.410000e+00 0.000000e+00 0.000000e+00
1.420000e+00 0.000000e+00 0.000000e+00
1.430000e+00 0.000000e+00 0.000000e+00
1.440000e+00 0.000000e+00 0.000000e+00
1.450000e+00 0.000000e+00 0.000000e+00
1.460000e+00 0.000000e+00 0.000000e+00
1.470000e+00 0.000000e+00 0.000000e+00
1.480000e+00 0.000000e+00 0.000000e+00
1.490000e+00 0.000000e+00 0.000000e+00
1.500000e+00 0.000000e+00 0.000000e+00
1.510000e+00 0.000000e+00 0.000000e+00
1.520000e+00 0.000000e+00 0.000000e+00
1.530000e+00 0.000000e+00 0.000000e+00
1.540000e+00 0.000000e+00 0.000000e+00
1.550000e+00 0.000000e+00 0.000000e+00
1.560000e+00 0.000000e+00 0.000000e+00
1.570000e+00 0.000000e+00 0.000000e+00
1.580000e+00 0.000000e+00 0.000000e+00
1.590000e+00 0.000000e+00 0.000000e+00
1.600000e+00 0.000000e+00 0.000000e+00
1.610000e+00 0.000000e+00 0.000000e+00
1.620000e+00 0.000000e+00 0.000000e+00
1.630000e+00 0.000000e+00 0.000000e+00
1.640000e+00 0.000000e+00 0.000000e+00
1.650000e+00 0.000000e+00 0.000000e+00
1.660000e+00 0.000000e+00 0.000000e+00
1.670000e+00 0.000000e+00 0.000000e+00
1.680000e+00 0.000000e+00 0.000000e+00
1.690000e+00 0.000000e+00 0.000000e+00
1.700000e+00 0.000000e+00 0.000000e+00
1.710000e+00 0.000000e+00 0.000000e+00
1.720000e+00 0.000000e+00 0.000000e+00
1.730000e+00 0.000000e+00 0.000000e+00
1.740000e+00 0.000000e+00 0.000000e+00
1.750000e+00 0.000000e+00 0.000000e+00
1.760000e+00 0.000000e+00 0.000000e+00
1.770000e+00 0.000000e+00 0.000000e+00
1.780000e+00 0.000000e+00 0.000000e+00
1.790000e+00 0.000000e+00 0.000000e+00
1.800000e+00 0.000000e+00 0.000000e+00
1.810000e+00 0.000000e+00 0.000000e+00
1.820000e+00 0.000000e+00 0.000000e+00
1.830000e+00 0.000000e+00 0.000000e+00
1.840000e+00 0.000000e+00 0.000000e+00
1.850000e+00 0.000000e+00 0.000000e+00
1.860000e+00 0.000000e+00 0.000000e+00
1.870000e+00 0.000000e+00 0.000000e+00
1.880000e+00 0.000000e+00 0.000000e+00
1.890000e+00 0.000000e+00 0.000000e+00
1.900000e+00 0.000000e+00 0.000000e+00
1.910000e+00 0.000000e+00 0.000000e+00
1.920000e+00 0.000000e+00 0.000000e+00
1.930000e+00 0.000000e+00 0.000000e+00
1.940000e+00 0.000000e+00 0.000000e+00
1.950000e+00 0.000000e+00 0.000000e+00
1.960000e+00 0.000000e+00 0.000000e+00
1.970000e+00 0.000000e+00 0.000000e+00
1.980000e+00 0.000000e+00 0.000000e+00
1.990000e+00 0.000000e+00 0.000000e+00

CELLS 200 600
2 0 3 
2 3 4 
2 4 5 
2 5 6 
2 6 7 
2 7 8 
2 8 9 
2 9 10 
2 10 11 
2 11 12 
2 12 13 
2 13 14 
2 14 15 
2 15 16 
2 16 17 
2 17 18 
2 18 19 
2 19 20 
2 20 21 
2 21 22 
2 22 23 
2 23 24 
2 24 25 
2 25 26 
2 26 27 
2 27 28 
2 28 29 
2 29 30 
2 30 31 
2 31 32 
2 32 33 
2 33 34 
2 34 35 
2 35 36 
2 36 37 
2 37 38 
2 38 39 
2 39 40 
2 40 41 
2 41 42 
2 42 43 
2 43 44 
2 44 45 
2 45 46 
2 46 47 
2 47 48 
2 48 49 
2 49 50 
2 50 51 
2 51 52 
2 52 53 
2 53 54 
2 54 55 
2 55 56 
2 56 57 
2 57 58 
2 58 59 
2 59 60 
2 60 61 
2 61 62 
2 62 63 
2 63 64 
2 64 65 
2 65 66 
2 66 67 
2 67 68 
2 68 69 
2 69 70 
2 70 71 
2 71 72 
2 72 73 
2 73 74 
2 74 75 
2 75 76 
2 76 77 
2 77 78 
2 78 79 
2 79 80 
2 80 81 
2 81 82 
2 82 83 
2 83 84 
2 84 85 
2 85 86 
2 86 87 
2 87 88 
2 88 89 
2 89 90 
2 90 91 
2 91 92 
2 92 93 
2 93 94 
2 94 95 
2 95 96 
2 96 97 
2 97 98 
2 98 99 
2 99 100 
2 100 101 
2 101 1 
2 1 102 
2 102 103 
2 103 104 
2 104 105 
2 105 106 
2 106 107 
2 107 108 
2 108 109 
2 109 110 
2 110 111 
2 111 112 
2 112 113 
2 113 114 
2 114 115 
2 115 116 
2 116 117 
2 117 118 
2 118 119 
2 119 120 
2 120 121 
2 121 122 
2 122 123 
2 123 124 
2 124 125 
2 125 126 
2 126 127 
2 127 128 
2 128 129 
2 129 130 
2 130 131 
2 131 132 
2 132 133 
2 133 134 
2 134 135 
2 135 136 
2 136 137 
2 137 138 
2 138 139 
2 139 140 
2 140 141 
2 141 142 
2 142 143 
2 143 144 
2 144 145 
2 145 146 
2 146 147 
2 147 148 
2 148 149 
2 149 150 
2 150 151 
2 151 152 
2 152 153 
2 153 154 
2 154 155 
2 155 156 
2 156 157 
2 157 158 
2 158 159 
2 159 160 
2 160 161 
2 161 162 
2 162 163 
2 163 164 
2 164 165 
2 165 166 
2 166 167 
2 167 168 
2 168 169 
2 169 170 
2 170 171 
2 171 172 
2 172 173 
2 173 174 
2 174 175 
2 175 176 
2 176 177 
2 177 178 
2 178 179 
2 179 180 
2 180 181 
2 181 182 
2 182 183 
2 183 184 
2 184 185 
2 185 186 
2 186 187 
2 187 188 
2 188 189 
2 189 190 
2 190 191 
2 191 192 
2 192 193 
2 193 194 
2 194 195 
2 195 196 
2 196 197 
2 197 198 
2 198 199 
2 199 200 
2 200 2 

CELL_TYPES 200
3
3
3
3
3
3
3
3
3
3
3
3
3
3
3
3
3
3
3
3
3
3
3
3
3
3
3
3
3
3
3
3
3
3
3
3
3
3
3
3
3
3
3
3
3
3
3
3
3
3
3
3
3
3
3
3
3
3
3
3
3
3
3
3
3
3
3
3
3
3
3
3
3
3
3
3
3
3
3
3
3
3
3
3
3
3
3
3
3
3
3
3
3
3
3
3
3
3
3
3
3
3
3
3
3
3
3
3
3
3
3
3
3
3
3
3
3
3
3
3
3
3
3
3
3
3
3
3
3
3
3
3
3
3
3
3
3
3
3
3
3
3
3
3
3
3
3
3
3
3
3
3
3
3
3
3
3
3
3
3
3
3
3
3
3
3
3
3
3
3
3
3
3
3
3
3
3
3
3
3
3
3
3
3
3
3
3
3
3
3
3
3
3
3
3
3
3
3
3
3

POINT_DATA 201

SCALARS node_groups int 1
LOOKUP_TABLE default
1
2
3
1
1
1
1
1
1
1
1
1
1
1
1
1
1
1
1
1
1
1
1
1
1
1
1
1
1
1
1
1
1
1
1
1
1
1
1
1
1
1
1
1
1
1
1
1
1
1
1
1
1
1
1
1
1
1
1
1
1
1
1
1
1
1
1
1
1
1
1
1
1
1
1
1
1
1
1
1
1
1
1
1
1
1
1
1
1
1
1
1
1
1
1
1
1
1
1
1
1
1
2
2
2
2
2
2
2
2
2
2
2
2
2
2
2
2
2
2
2
2
2
2
2
2
2
2
2
2
2
2
2
2
2
2
2
2
2
2
2
2
2
2
2
2
2
2
2
2
2
2
2
2
2
2
2
2
2
2
2
2
2
2
2
2
2
2
2
2
2
2
2
2
2
2
2
2
2
2
2
2
2
2
2
2
2
2
2
2
2
2
2
2
2
2
2
2
2
2
2

SCALARS phil float 1
LOOKUP_TABLE default
0.000000e+00
-6.658706e-02
-1.058874e-01
-6.658706e-04
-1.331741e-03
-1.997612e-03
-2.663482e-03
-3.329353e-03
-3.995224e-03
-4.661094e-03
-5.326965e-03
-5.992836e-03
-6.658706e-03
-7.324577e-03
-7.990447e-03
-8.656318e-03
-9.322189e-03
-9.988059e-03
-1.065393e-02
-1.131980e-02
-1.198567e-02
-1.265154e-02
-1.331741e-02
-1.398328e-02
-1.464915e-02
-1.531502e-02
-1.598089e-02
-1.664677e-02
-1.731264e-02
-1.797851e-02
-1.864438e-02
-1.931025e-02
-1.997612e-02
-2.064199e-02
-2.130786e-02
-2.197373e-02
-2.263960e-02
-2.330547e-02
-2.397134e-02
-2.463721e-02
-2.530308e-02
-2.596895e-02
-2.663482e-02
-2.730070e-02
-2.796657e-02
-2.863244e-02
-2.929831e-02
-2.996418e-02
-3.063005e-02
-3.129592e-02
-3.196179e-02
-3.262766e-02
-3.329353e-02
-3.395940e-02
-3.462527e-02
-3.529114e-02
-3.595701e-02
-3.662288e-02
-3.728875e-02
-3.795463e-02
-3.862050e-02
-3.928637e-02
-3.995224e-02
-4.061811e-02
-4.128398e-02
-4.194985e-02
-4.261572e-02
-4.328159e-02
-4.394746e-02
-4.461333e-02
-4.527920e-02
-4.594507e-02
-4.661094e-02
-4.727681e-02
-4.794268e-02
-4.860856e-02
-4.927443e-02
-4.994030e-02
-5.060617e-02
-5.127204e-02
-5.193791e-02
-5.260378e-02
-5.326965e-02
-5.393552e-02
-5.460139e-02
-5.526726e-02
-5.593313e-02
-5.659900e-02
-5.726487e-02
-5.793074e-02
-5.859661e-02
-5.926248e-02
-5.992836e-02
-6.059423e-02
-6.126010e-02
-6.192597e-02
-6.259184e-02
-6.325771e-02
-6.392358e-02
-6.458945e-02
-6.525532e-02
-6.592119e-02
-6.725283e-02
-6.791807e-02
-6.858226e-02
-6.924494e-02
-6.990571e-02
-7.056415e-02
-7.121991e-02
-7.187266e-02
-7.252208e-02
-7.316792e-02
-7.380989e-02
-7.444779e-02
-7.508139e-02
-7.571053e-02
-7.633501e-02
-7.695471e-02
-7.756947e-02
-7.817917e-02
-7.878372e-02
-7.938300e-02
-7.997695e-02
-8.056550e-02
-8.114859e-02
-8.172619e-02
-8.229826e-02
-8.286476e-02
-8.342541e-02
-8.397993e-02
-8.452803e-02
-8.506943e-02
-8.560389e-02
-8.613114e-02
-8.665096e-02
-8.716312e-02
-8.766740e-02
-8.816361e-02
-8.865155e-02
-8.913107e-02
-8.960199e-02
-9.006416e-02
-9.051745e-02
-9.096172e-02
-9.139684e-02
-9.182272e-02
-9.223924e-02
-9.264631e-02
-9.304385e-02
-9.343180e-02
-9.381009e-02
-9.417869e-02
-9.454232e-02
-9.490542e-02
-9.526747e-02
-9.562799e-02
-9.598655e-02
-9.634274e-02
-9.669617e-02
-9.704648e-02
-9.739333e-02
-9.773642e-02
-9.807546e-02
-9.841017e-02
-9.874033e-02
-9.906570e-02
-9.938607e-02
-9.970126e-02
-1.000111e-01
-1.003154e-01
-1.006140e-01
-1.009068e-01
-1.011937e-01
-1.014745e-01
-1.017492e-01
-1.020176e-01
-1.022798e-01
-1.025356e-01
-1.027846e-01
-1.030265e-01
-1.032609e-01
-1.034875e-01
-1.037059e-01
-1.039157e-01
-1.041166e-01
-1.043083e-01
-1.044904e-01
-1.046626e-01
-1.048248e-01
-1.049764e-01
-1.051174e-01
-1.052473e-01
-1.053660e-01
-1.054732e-01
-1.055686e-01
-1.056520e-01
-1.057231e-01
-1.057818e-01
-1.058278e-01
-1.058608e-01
-1.058808e-01

SCALARS phis float 1
LOOKUP_TABLE default
7.000000e-01
7.818154e-01
7.000000e-01
7.000000e-01
7.000000e-01
7.000000e-01
7.000000e-01
7.000000e-01
7.000000e-01
7.000000e-01
7.000000e-01
7.000000e-01
7.000000e-01
7.000000e-01
7.000000e-01
7.000000e-01
7.000000e-01
7.000000e-01
7.000000e-01
7.000000e-01
7.000000e-01
7.000000e-01
7.000000e-01
7.000000e-01
7.000000e-01
7.000000e-01
7.000000e-01
7.000000e-01
7.000000e-01
7.000000e-01
7.000000e-01
7.000000e-01
7.000000e-01
7.000000e-01
7.000000e-01
7.000000e-01
7.000000e-01
7.000000e-01
7.000000e-01
7.000000e-01
7.000000e-01
7.000000e-01
7.000000e-01
7.000000e-01
7.000000e-01
7.000000e-01
7.000000e-01
7.000000e-01
7.000000e-01
7.000000e-01
7.000000e-01
7.000000e-01
7.000000e-01
7.000000e-01
7.000000e-01
7.000000e-01
7.000000e-01
7.000000e-01
7.000000e-01
7.000000e-01
7.000000e-01
7.000000e-01
7.000000e-01
7.000000e-01
7.000000e-01
7.000000e-01
7.000000e-01
7.000000e-01
7.000000e-01
7.000000e-01
7.000000e-01
7.000000e-01
7.000000e-01
7.000000e-01
7.000000e-01
7.000000e-01
7.000000e-01
7.000000e-01
7.000000e-01
7.000000e-01
7.000000e-01
7.000000e-01
7.000000e-01
7.000000e-01
7.000000e-01
7.000000e-01
7.000000e-01
7.000000e-01
7.000000e-01
7.000000e-01
7.000000e-01
7.000000e-01
7.000000e-01
7.000000e-01
7.000000e-01
7.000000e-01
7.000000e-01
7.000000e-01
7.000000e-01
7.000000e-01
7.000000e-01
7.000000e-01
7.818127e-01
7.817867e-01
7.817348e-01
7.816571e-01
7.815539e-01
7.814254e-01
7.812719e-01
7.810938e-01
7.808914e-01
7.806651e-01
7.804153e-01
7.801426e-01
7.798473e-01
7.795299e-01
7.791910e-01
7.788311e-01
7.784508e-01
7.780510e-01
7.776322e-01
7.771954e-01
7.767413e-01
7.762707e-01
7.757846e-01
7.752838e-01
7.747692e-01
7.742416e-01
7.737009e-01
7.731473e-01
7.725809e-01
7.720020e-01
7.714107e-01
7.708074e-01
7.701925e-01
7.695663e-01
7.689292e-01
7.682816e-01
7.676240e-01
7.669569e-01
7.662807e-01
7.655959e-01
7.649032e-01
7.642032e-01
7.634965e-01
7.627840e-01
7.620664e-01
7.613445e-01
7.606193e-01
7.598915e-01
7.591621e-01
7.584320e-01
7.576991e-01
7.569429e-01
7.561608e-01
7.553530e-01
7.545196e-01
7.536609e-01
7.527772e-01
7.518689e-01
7.509363e-01
7.499799e-01
7.489999e-01
7.479970e-01
7.469715e-01
7.459240e-01
7.448549e-01
7.437648e-01
7.426544e-01
7.415244e-01
7.403754e-01
7.392084e-01
7.380241e-01
7.368234e-01
7.356071e-01
7.343761e-01
7.331314e-01
7.318735e-01
7.306027e-01
7.293189e-01
7.280224e-01
7.267132e-01
7.253918e-01
7.240583e-01
7.227132e-01
7.213568e-01
7.199896e-01
7.186118e-01
7.172241e-01
7.158268e-01
7.144204e-01
7.130054e-01
7.115826e-01
7.101523e-01
7.087155e-01
7.072728e-01
7.058250e-01
7.043730e-01
7.029175e-01
7.014596e-01
7.000000e-01

SCALARS il float 1
LOOKUP_TABLE default
-6.658706e-02
-6.658674e-02
-3.844767e-04
-6.658706e-02
-6.658706e-02
-6.658706e-02
-6.658706e-02
-6.658706e-02
-6.658706e-02
-6.658706e-02
-6.658706e-02
-6.658706e-02
-6.658706e-02
-6.658706e-02
-6.658706e-02
-6.658706e-02
-6.658706e-02
-6.658706e-02
-6.658706e-02
-6.658706e-02
-6.658706e-02
-6.658706e-02
-6.658706e-02
-6.658706e-02
-6.658706e-02
-6.658706e-02
-6.658706e-02
-6.658706e-02
-6.658706e-02
-6.658706e-02
-6.658706e-02
-6.658706e-02
-6.658706e-02
-6.658706e-02
-6.658706e-02
-6.658706e-02
-6.658706e-02
-6.658706e-02
-6.658706e-02
-6.658706e-02
-6.658706e-02
-6.658706e-02
-6.658706e-02
-6.658706e-02
-6.658706e-02
-6.658706e-02
-6.658706e-02
-6.658706e-02
-6.658706e-02
-6.658706e-02
-6.658706e-02
-6.658706e-02
-6.658706e-02
-6.658706e-02
-6.658706e-02
-6.658706e-02
-6.658706e-02
-6.658706e-02
-6.658706e-02
-6.658706e-02
-6.658706e-02
-6.658706e-02
-6.658706e-02
-6.658706e-02
-6.658706e-02
-6.658706e-02
-6.658706e-02
-6.658706e-02
-6.658706e-02
-6.658706e-02
-6.658706e-02
-6.658706e-02
-6.658706e-02
-6.658706e-02
-6.658706e-02
-6.658706e-02
-6.658706e-02
-6.658706e-02
-6.658706e-02
-6.658706e-02
-6.658706e-02
-6.658706e-02
-6.658706e-02
-6.658706e-02
-6.658706e-02
-6.658706e-02
-6.658706e-02
-6.658706e-02
-6.658706e-02
-6.658706e-02
-6.658706e-02
-6.658706e-02
-6.658706e-02
-6.658706e-02
-6.658706e-02
-6.658706e-02
-6.658706e-02
-6.658706e-02
-6.658706e-02
-6.658707e-02
-6.658704e-02
-6.658715e-02
-6.655896e-02
-6.647917e-02
-6.635121e-02
-6.617918e-02
-6.596635e-02
-6.571590e-02
-6.543078e-02
-6.511375e-02
-6.476743e-02
-6.439442e-02
-6.399721e-02
-6.357828e-02
-6.313991e-02
-6.268371e-02
-6.221137e-02
-6.172471e-02
-6.122518e-02
-6.071417e-02
-6.019306e-02
-5.966320e-02
-5.912593e-02
-5.858265e-02
-5.803476e-02
-5.748383e-02
-5.693107e-02
-5.636236e-02
-5.576345e-02
-5.513543e-02
-5.447970e-02
-5.379735e-02
-5.308958e-02
-5.235754e-02
-5.160240e-02
-5.082537e-02
-5.002770e-02
-4.921072e-02
-4.837582e-02
-4.752434e-02
-4.665717e-02
-4.577527e-02
-4.487981e-02
-4.397171e-02
-4.305187e-02
-4.212138e-02
-4.118085e-02
-4.023280e-02
-3.927286e-02
-3.832277e-02
-3.730736e-02
-3.651362e-02
-3.630781e-02
-3.627538e-02
-3.613338e-02
-3.596212e-02
-3.574389e-02
-3.548702e-02
-3.519264e-02
-3.486361e-02
-3.450222e-02
-3.411084e-02
-3.369179e-02
-3.324740e-02
-3.277982e-02
-3.229052e-02
-3.178108e-02
-3.125329e-02
-3.070850e-02
-3.014805e-02
-2.957329e-02
-2.898552e-02
-2.838609e-02
-2.777639e-02
-2.715787e-02
-2.653217e-02
-2.590054e-02
-2.524672e-02
-2.455413e-02
-2.382352e-02
-2.305605e-02
-2.225251e-02
-2.141378e-02
-2.054076e-02
-1.963430e-02
-1.869534e-02
-1.772487e-02
-1.672397e-02
-1.569378e-02
-1.463542e-02
-1.354943e-02
-1.243650e-02
-1.129759e-02
-1.013329e-02
-8.944177e-03
-7.731211e-03
-6.494009e-03
-5.237364e-03
-3.947058e-03
-2.680357e-03
-1.228366e-03

SCALARS is float 1
LOOKUP_TABLE default
-3.911746e-01
-2.011572e-03
-3.911746e-01
-3.911746e-01
-3.911746e-01
-3.911746e-01
-3.911746e-01
-3.911746e-01
-3.911746e-01
-3.911746e-01
-3.911746e-01
-3.911746e-01
-3.911746e-01
-3.911746e-01
-3.911746e-01
-3.911746e-01
-3.911746e-01
-3.911746e-01
-3.911746e-01
-3.911746e-01
-3.911746e-01
-3.911746e-01
-3.911746e-01
-3.911746e-01
-3.911746e-01
-3.911746e-01
-3.911746e-01
-3.911746e-01
-3.911746e-01
-3.911746e-01
-3.911746e-01
-3.911746e-01
-3.911746e-01
-3.911746e-01
-3.911746e-01
-3.911746e-01
-3.911746e-01
-3.911746e-01
-3.911746e-01
-3.911746e-01
-3.911746e-01
-3.911746e-01
-3.911746e-01
-3.911746e-01
-3.911746e-01
-3.911746e-01
-3.911746e-01
-3.911746e-01
-3.911746e-01
-3.911746e-01
-3.911746e-01
-3.911746e-01
-3.911746e-01
-3.911746e-01
-3.911746e-01
-3.911746e-01
-3.911746e-01
-3.911746e-01
-3.911746e-01
-3.911746e-01
-3.911746e-01
-3.911746e-01
-3.911746e-01
-3.911746e-01
-3.911746e-01
-3.911746e-01
-3.911746e-01
-3.911746e-01
-3.911746e-01
-3.911746e-01
-3.911746e-01
-3.911746e-01
-3.911746e-01
-3.911746e-01
-3.911746e-01
-3.911746e-01
-3.911746e-01
-3.911746e-01
-3.911746e-01
-3.911746e-01
-3.911746e-01
-3.911746e-01
-3.911746e-01
-3.911746e-01
-3.911746e-01
-3.911746e-01
-3.911746e-01
-3.911746e-01
-3.911746e-01
-3.911746e-01
-3.911746e-01
-3.911746e-01
-3.911746e-01
-3.911746e-01
-3.911746e-01
-3.911746e-01
-3.911746e-01
-3.911746e-01
-3.911746e-01
-3.911746e-01
-3.911746e-01
-3.911746e-01
1.226966e-02
3.916789e-02
6.475996e-02
9.048941e-02
1.158991e-01
1.410493e-01
1.658717e-01
1.903403e-01
2.144221e-01
2.380903e-01
2.613220e-01
2.841009e-01
3.064178e-01
3.282427e-01
3.495158e-01
3.701750e-01
3.901634e-01
4.094298e-01
4.279307e-01
4.456299e-01
4.624955e-01
4.784965e-01
4.936132e-01
5.078043e-01
5.211524e-01
5.341704e-01
5.471626e-01
5.600247e-01
5.727079e-01
5.851544e-01
5.973173e-01
6.091565e-01
6.206383e-01
6.317316e-01
6.424088e-01
6.526470e-01
6.624299e-01
6.717480e-01
6.805715e-01
6.888400e-01
6.964910e-01
7.034675e-01
7.097180e-01
7.151981e-01
7.198740e-01
7.237033e-01
7.266942e-01
7.286797e-01
7.301678e-01
7.291901e-01
7.421714e-01
7.694180e-01
7.949167e-01
8.206712e-01
8.460742e-01
8.712262e-01
8.960481e-01
9.205168e-01
9.445986e-01
9.682668e-01
9.914985e-01
1.014277e+00
1.036594e+00
1.058419e+00
1.079692e+00
1.100351e+00
1.120340e+00
1.139606e+00
1.158107e+00
1.175806e+00
1.192672e+00
1.208673e+00
1.223790e+00
1.237981e+00
1.251329e+00
1.264347e+00
1.277339e+00
1.290201e+00
1.302884e+00
1.315331e+00
1.327494e+00
1.339333e+00
1.350815e+00
1.361908e+00
1.372585e+00
1.382824e+00
1.392606e+00
1.401925e+00
1.410747e+00
1.419021e+00
1.426649e+00
1.433711e+00
1.439644e+00
1.446311e+00
1.446556e+00
1.466923e+00
1.408193e+00
1.640524e+00
7.823493e-01

CELL_DATA 200
SCALARS mat_id int 1
LOOKUP_TABLE default
1
1
1
1
1
1
1
1
1
1
1
1
1
1
1
1
1
1
1
1
1
1
1
1
1
1
1
1
1
1
1
1
1
1
1
1
1
1
1
1
1
1
1
1
1
1
1
1
1
1
1
1
1
1
1
1
1
1
1
1
1
1
1
1
1
1
1
1
1
1
1
1
1
1
1
1
1
1
1
1
1
1
1
1
1
1
1
1
1
1
1
1
1
1
1
1
1
1
1
1
2
2
2
2
2
2
2
2
2
2
2
2
2
2
2
2
2
2
2
2
2
2
2
2
2
2
2
2
2
2
2
2
2
2
2
2
2
2
2
2
2
2
2
2
2
2
2
2
2
2
2
2
2
2
2
2
2
2
2
2
2
2
2
2
2
2
2
2
2
2
2
2
2
2
2
2
2
2
2
2
2
2
2
2
2
2
2
2
2
2
2
2
2
2
2
2
2
2
2
2
