# vtk DataFile Version 2.0
step 7 time 7.000000e-02 normalized time 7.000000e-01, generated by simple.py
ASCII
DATASET UNSTRUCTURED_GRID

POINTS 201 float
0.000000e+00 0.000000e+00 0.000000e+00
1.000000e+00 0.000000e+00 0.000000e+00
2.000000e+00 0.000000e+00 0.000000e+00
1.000000e-02 0.000000e+00 0.000000e+00
2.000000e-02 0.000000e+00 0.000000e+00
3.000000e-02 0.000000e+00 0.000000e+00
4.000000e-02 0.000000e+00 0.000000e+00
5.000000e-02 0.000000e+00 0.000000e+00
6.000000e-02 0.000000e+00 0.000000e+00
7.000000e-02 0.000000e+00 0.000000e+00
8.000000e-02 0.000000e+00 0.000000e+00
9.000000e-02 0.000000e+00 0.000000e+00
1.000000e-01 0.000000e+00 0.000000e+00
1.100000e-01 0.000000e+00 0.000000e+00
1.200000e-01 0.000000e+00 0.000000e+00
1.300000e-01 0.000000e+00 0.000000e+00
1.400000e-01 0.000000e+00 0.000000e+00
1.500000e-01 0.000000e+00 0.000000e+00
1.600000e-01 0.000000e+00 0.000000e+00
1.700000e-01 0.000000e+00 0.000000e+00
1.800000e-01 0.000000e+00 0.000000e+00
1.900000e-01 0.000000e+00 0.000000e+00
2.000000e-01 0.000000e+00 0.000000e+00
2.100000e-01 0.000000e+00 0.000000e+00
2.200000e-01 0.000000e+00 0.000000e+00
2.300000e-01 0.000000e+00 0.000000e+00
2.400000e-01 0.000000e+00 0.000000e+00
2.500000e-01 0.000000e+00 0.000000e+00
2.600000e-01 0.000000e+00 0.000000e+00
2.700000e-01 0.000000e+00 0.000000e+00
2.800000e-01 0.000000e+00 0.000000e+00
2.900000e-01 0.000000e+00 0.000000e+00
3.000000e-01 0.000000e+00 0.000000e+00
3.100000e-01 0.000000e+00 0.000000e+00
3.200000e-01 0.000000e+00 0.000000e+00
3.300000e-01 0.000000e+00 0.000000e+00
3.400000e-01 0.000000e+00 0.000000e+00
3.500000e-01 0.000000e+00 0.000000e+00
3.600000e-01 0.000000e+00 0.000000e+00
3.700000e-01 0.000000e+00 0.000000e+00
3.800000e-01 0.000000e+00 0.000000e+00
3.900000e-01 0.000000e+00 0.000000e+00
4.000000e-01 0.000000e+00 0.000000e+00
4.100000e-01 0.000000e+00 0.000000e+00
4.200000e-01 0.000000e+00 0.000000e+00
4.300000e-01 0.000000e+00 0.000000e+00
4.400000e-01 0.000000e+00 0.000000e+00
4.500000e-01 0.000000e+00 0.000000e+00
4.600000e-01 0.000000e+00 0.000000e+00
4.700000e-01 0.000000e+00 0.000000e+00
4.800000e-01 0.000000e+00 0.000000e+00
4.900000e-01 0.000000e+00 0.000000e+00
5.000000e-01 0.000000e+00 0.000000e+00
5.100000e-01 0.000000e+00 0.000000e+00
5.200000e-01 0.000000e+00 0.000000e+00
5.300000e-01 0.000000e+00 0.000000e+00
5.400000e-01 0.000000e+00 0.000000e+00
5.500000e-01 0.000000e+00 0.000000e+00
5.600000e-01 0.000000e+00 0.000000e+00
5.700000e-01 0.000000e+00 0.000000e+00
5.800000e-01 0.000000e+00 0.000000e+00
5.900000e-01 0.000000e+00 0.000000e+00
6.000000e-01 0.000000e+00 0.000000e+00
6.100000e-01 0.000000e+00 0.000000e+00
6.200000e-01 0.000000e+00 0.000000e+00
6.300000e-01 0.000000e+00 0.000000e+00
6.400000e-01 0.000000e+00 0.000000e+00
6.500000e-01 0.000000e+00 0.000000e+00
6.600000e-01 0.000000e+00 0.000000e+00
6.700000e-01 0.000000e+00 0.000000e+00
6.800000e-01 0.000000e+00 0.000000e+00
6.900000e-01 0.000000e+00 0.000000e+00
7.000000e-01 0.000000e+00 0.000000e+00
7.100000e-01 0.000000e+00 0.000000e+00
7.200000e-01 0.000000e+00 0.000000e+00
7.300000e-01 0.000000e+00 0.000000e+00
7.400000e-01 0.000000e+00 0.000000e+00
7.500000e-01 0.000000e+00 0.000000e+00
7.600000e-01 0.000000e+00 0.000000e+00
7.700000e-01 0.000000e+00 0.000000e+00
7.800000e-01 0.000000e+00 0.000000e+00
7.900000e-01 0.000000e+00 0.000000e+00
8.000000e-01 0.000000e+00 0.000000e+00
8.100000e-01 0.000000e+00 0.000000e+00
8.200000e-01 0.000000e+00 0.000000e+00
8.300000e-01 0.000000e+00 0.000000e+00
8.400000e-01 0.000000e+00 0.000000e+00
8.500000e-01 0.000000e+00 0.000000e+00
8.600000e-01 0.000000e+00 0.000000e+00
8.700000e-01 0.000000e+00 0.000000e+00
8.800000e-01 0.000000e+00 0.000000e+00
8.900000e-01 0.000000e+00 0.000000e+00
9.000000e-01 0.000000e+00 0.000000e+00
9.100000e-01 0.000000e+00 0.000000e+00
9.200000e-01 0.000000e+00 0.000000e+00
9.300000e-01 0.000000e+00 0.000000e+00
9.400000e-01 0.000000e+00 0.000000e+00
9.500000e-01 0.000000e+00 0.000000e+00
9.600000e-01 0.000000e+00 0.000000e+00
9.700000e-01 0.000000e+00 0.000000e+00
9.800000e-01 0.000000e+00 0.000000e+00
9.900000e-01 0.000000e+00 0.000000e+00
1.010000e+00 0.000000e+00 0.000000e+00
1.020000e+00 0.000000e+00 0.000000e+00
1.030000e+00 0.000000e+00 0.000000e+00
1.040000e+00 0.000000e+00 0.000000e+00
1.050000e+00 0.000000e+00 0.000000e+00
1.060000e+00 0.000000e+00 0.000000e+00
1.070000e+00 0.000000e+00 0.000000e+00
1.080000e+00 0.000000e+00 0.000000e+00
1.090000e+00 0.000000e+00 0.000000e+00
1.100000e+00 0.000000e+00 0.000000e+00
1.110000e+00 0.000000e+00 0.000000e+00
1.120000e+00 0.000000e+00 0.000000e+00
1.130000e+00 0.000000e+00 0.000000e+00
1.140000e+00 0.000000e+00 0.000000e+00
1.150000e+00 0.000000e+00 0.000000e+00
1.160000e+00 0.000000e+00 0.000000e+00
1.170000e+00 0.000000e+00 0.000000e+00
1.180000e+00 0.000000e+00 0.000000e+00
1.190000e+00 0.000000e+00 0.000000e+00
1.200000e+00 0.000000e+00 0.000000e+00
1.210000e+00 0.000000e+00 0.000000e+00
1.220000e+00 0.000000e+00 0.000000e+00
1.230000e+00 0.000000e+00 0.000000e+00
1.240000e+00 0.000000e+00 0.000000e+00
1.250000e+00 0.000000e+00 0.000000e+00
1.260000e+00 0.000000e+00 0.000000e+00
1.270000e+00 0.000000e+00 0.000000e+00
1.280000e+00 0.000000e+00 0.000000e+00
1.290000e+00 0.000000e+00 0.000000e+00
1.300000e+00 0.000000e+00 0.000000e+00
1.310000e+00 0.000000e+00 0.000000e+00
1.320000e+00 0.000000e+00 0.000000e+00
1.330000e+00 0.000000e+00 0.000000e+00
1.340000e+00 0.000000e+00 0.000000e+00
1.350000e+00 0.000000e+00 0.000000e+00
1.360000e+00 0.000000e+00 0.000000e+00
1.370000e+00 0.000000e+00 0.000000e+00
1.380000e+00 0.000000e+00 0.000000e+00
1.390000e+00 0.000000e+00 0.000000e+00
1.400000e+00 0.000000e+00 0.000000e+00
1.410000e+00 0.000000e+00 0.000000e+00
1.420000e+00 0.000000e+00 0.000000e+00
1.430000e+00 0.000000e+00 0.000000e+00
1.440000e+00 0.000000e+00 0.000000e+00
1.450000e+00 0.000000e+00 0.000000e+00
1.460000e+00 0.000000e+00 0.000000e+00
1.470000e+00 0.000000e+00 0.000000e+00
1.480000e+00 0.000000e+00 0.000000e+00
1.490000e+00 0.000000e+00 0.000000e+00
1.500000e+00 0.000000e+00 0.000000e+00
1.510000e+00 0.000000e+00 0.000000e+00
1.520000e+00 0.000000e+00 0.000000e+00
1.530000e+00 0.000000e+00 0.000000e+00
1.540000e+00 0.000000e+00 0.000000e+00
1.550000e+00 0.000000e+00 0.000000e+00
1.560000e+00 0.000000e+00 0.000000e+00
1.570000e+00 0.000000e+00 0.000000e+00
1.580000e+00 0.000000e+00 0.000000e+00
1.590000e+00 0.000000e+00 0.000000e+00
1.600000e+00 0.000000e+00 0.000000e+00
1.610000e+00 0.000000e+00 0.000000e+00
1.620000e+00 0.000000e+00 0.000000e+00
1.630000e+00 0.000000e+00 0.000000e+00
1.640000e+00 0.000000e+00 0.000000e+00
1.650000e+00 0.000000e+00 0.000000e+00
1.660000e+00 0.000000e+00 0.000000e+00
1.670000e+00 0.000000e+00 0.000000e+00
1.680000e+00 0.000000e+00 0.000000e+00
1.690000e+00 0.000000e+00 0.000000e+00
1.700000e+00 0.000000e+00 0.000000e+00
1.710000e+00 0.000000e+00 0.000000e+00
1.720000e+00 0.000000e+00 0.000000e+00
1.730000e+00 0.000000e+00 0.000000e+00
1.740000e+00 0.000000e+00 0.000000e+00
1.750000e+00 0.000000e+00 0.000000e+00
1.760000e+00 0.000000e+00 0.000000e+00
1.770000e+00 0.000000e+00 0.000000e+00
1.780000e+00 0.000000e+00 0.000000e+00
1.790000e+00 0.000000e+00 0.000000e+00
1.800000e+00 0.000000e+00 0.000000e+00
1.810000e+00 0.000000e+00 0.000000e+00
1.820000e+00 0.000000e+00 0.000000e+00
1.830000e+00 0.000000e+00 0.000000e+00
1.840000e+00 0.000000e+00 0.000000e+00
1.850000e+00 0.000000e+00 0.000000e+00
1.860000e+00 0.000000e+00 0.000000e+00
1.870000e+00 0.000000e+00 0.000000e+00
1.880000e+00 0.000000e+00 0.000000e+00
1.890000e+00 0.000000e+00 0.000000e+00
1.900000e+00 0.000000e+00 0.000000e+00
1.910000e+00 0.000000e+00 0.000000e+00
1.920000e+00 0.000000e+00 0.000000e+00
1.930000e+00 0.000000e+00 0.000000e+00
1.940000e+00 0.000000e+00 0.000000e+00
1.950000e+00 0.000000e+00 0.000000e+00
1.960000e+00 0.000000e+00 0.000000e+00
1.970000e+00 0.000000e+00 0.000000e+00
1.980000e+00 0.000000e+00 0.000000e+00
1.990000e+00 0.000000e+00 0.000000e+00

CELLS 200 600
2 0 3 
2 3 4 
2 4 5 
2 5 6 
2 6 7 
2 7 8 
2 8 9 
2 9 10 
2 10 11 
2 11 12 
2 12 13 
2 13 14 
2 14 15 
2 15 16 
2 16 17 
2 17 18 
2 18 19 
2 19 20 
2 20 21 
2 21 22 
2 22 23 
2 23 24 
2 24 25 
2 25 26 
2 26 27 
2 27 28 
2 28 29 
2 29 30 
2 30 31 
2 31 32 
2 32 33 
2 33 34 
2 34 35 
2 35 36 
2 36 37 
2 37 38 
2 38 39 
2 39 40 
2 40 41 
2 41 42 
2 42 43 
2 43 44 
2 44 45 
2 45 46 
2 46 47 
2 47 48 
2 48 49 
2 49 50 
2 50 51 
2 51 52 
2 52 53 
2 53 54 
2 54 55 
2 55 56 
2 56 57 
2 57 58 
2 58 59 
2 59 60 
2 60 61 
2 61 62 
2 62 63 
2 63 64 
2 64 65 
2 65 66 
2 66 67 
2 67 68 
2 68 69 
2 69 70 
2 70 71 
2 71 72 
2 72 73 
2 73 74 
2 74 75 
2 75 76 
2 76 77 
2 77 78 
2 78 79 
2 79 80 
2 80 81 
2 81 82 
2 82 83 
2 83 84 
2 84 85 
2 85 86 
2 86 87 
2 87 88 
2 88 89 
2 89 90 
2 90 91 
2 91 92 
2 92 93 
2 93 94 
2 94 95 
2 95 96 
2 96 97 
2 97 98 
2 98 99 
2 99 100 
2 100 101 
2 101 1 
2 1 102 
2 102 103 
2 103 104 
2 104 105 
2 105 106 
2 106 107 
2 107 108 
2 108 109 
2 109 110 
2 110 111 
2 111 112 
2 112 113 
2 113 114 
2 114 115 
2 115 116 
2 116 117 
2 117 118 
2 118 119 
2 119 120 
2 120 121 
2 121 122 
2 122 123 
2 123 124 
2 124 125 
2 125 126 
2 126 127 
2 127 128 
2 128 129 
2 129 130 
2 130 131 
2 131 132 
2 132 133 
2 133 134 
2 134 135 
2 135 136 
2 136 137 
2 137 138 
2 138 139 
2 139 140 
2 140 141 
2 141 142 
2 142 143 
2 143 144 
2 144 145 
2 145 146 
2 146 147 
2 147 148 
2 148 149 
2 149 150 
2 150 151 
2 151 152 
2 152 153 
2 153 154 
2 154 155 
2 155 156 
2 156 157 
2 157 158 
2 158 159 
2 159 160 
2 160 161 
2 161 162 
2 162 163 
2 163 164 
2 164 165 
2 165 166 
2 166 167 
2 167 168 
2 168 169 
2 169 170 
2 170 171 
2 171 172 
2 172 173 
2 173 174 
2 174 175 
2 175 176 
2 176 177 
2 177 178 
2 178 179 
2 179 180 
2 180 181 
2 181 182 
2 182 183 
2 183 184 
2 184 185 
2 185 186 
2 186 187 
2 187 188 
2 188 189 
2 189 190 
2 190 191 
2 191 192 
2 192 193 
2 193 194 
2 194 195 
2 195 196 
2 196 197 
2 197 198 
2 198 199 
2 199 200 
2 200 2 

CELL_TYPES 200
3
3
3
3
3
3
3
3
3
3
3
3
3
3
3
3
3
3
3
3
3
3
3
3
3
3
3
3
3
3
3
3
3
3
3
3
3
3
3
3
3
3
3
3
3
3
3
3
3
3
3
3
3
3
3
3
3
3
3
3
3
3
3
3
3
3
3
3
3
3
3
3
3
3
3
3
3
3
3
3
3
3
3
3
3
3
3
3
3
3
3
3
3
3
3
3
3
3
3
3
3
3
3
3
3
3
3
3
3
3
3
3
3
3
3
3
3
3
3
3
3
3
3
3
3
3
3
3
3
3
3
3
3
3
3
3
3
3
3
3
3
3
3
3
3
3
3
3
3
3
3
3
3
3
3
3
3
3
3
3
3
3
3
3
3
3
3
3
3
3
3
3
3
3
3
3
3
3
3
3
3
3
3
3
3
3
3
3
3
3
3
3
3
3
3
3
3
3
3
3

POINT_DATA 201

SCALARS node_groups int 1
LOOKUP_TABLE default
1
2
3
1
1
1
1
1
1
1
1
1
1
1
1
1
1
1
1
1
1
1
1
1
1
1
1
1
1
1
1
1
1
1
1
1
1
1
1
1
1
1
1
1
1
1
1
1
1
1
1
1
1
1
1
1
1
1
1
1
1
1
1
1
1
1
1
1
1
1
1
1
1
1
1
1
1
1
1
1
1
1
1
1
1
1
1
1
1
1
1
1
1
1
1
1
1
1
1
1
1
1
2
2
2
2
2
2
2
2
2
2
2
2
2
2
2
2
2
2
2
2
2
2
2
2
2
2
2
2
2
2
2
2
2
2
2
2
2
2
2
2
2
2
2
2
2
2
2
2
2
2
2
2
2
2
2
2
2
2
2
2
2
2
2
2
2
2
2
2
2
2
2
2
2
2
2
2
2
2
2
2
2
2
2
2
2
2
2
2
2
2
2
2
2
2
2
2
2
2
2

SCALARS phil float 1
LOOKUP_TABLE default
0.000000e+00
-2.727459e-01
-2.727459e-01
-2.727459e-03
-5.454919e-03
-8.182378e-03
-1.090984e-02
-1.363730e-02
-1.636476e-02
-1.909222e-02
-2.181968e-02
-2.454714e-02
-2.727459e-02
-3.000205e-02
-3.272951e-02
-3.545697e-02
-3.818443e-02
-4.091189e-02
-4.363935e-02
-4.636681e-02
-4.909427e-02
-5.182173e-02
-5.454919e-02
-5.727665e-02
-6.000411e-02
-6.273157e-02
-6.545903e-02
-6.818649e-02
-7.091395e-02
-7.364141e-02
-7.636887e-02
-7.909633e-02
-8.182378e-02
-8.455124e-02
-8.727870e-02
-9.000616e-02
-9.273362e-02
-9.546108e-02
-9.818854e-02
-1.009160e-01
-1.036435e-01
-1.063709e-01
-1.090984e-01
-1.118258e-01
-1.145533e-01
-1.172808e-01
-1.200082e-01
-1.227357e-01
-1.254631e-01
-1.281906e-01
-1.309181e-01
-1.336455e-01
-1.363730e-01
-1.391004e-01
-1.418279e-01
-1.445554e-01
-1.472828e-01
-1.500103e-01
-1.527377e-01
-1.554652e-01
-1.581927e-01
-1.609201e-01
-1.636476e-01
-1.663750e-01
-1.691025e-01
-1.718299e-01
-1.745574e-01
-1.772849e-01
-1.800123e-01
-1.827398e-01
-1.854672e-01
-1.881947e-01
-1.909222e-01
-1.936496e-01
-1.963771e-01
-1.991045e-01
-2.018320e-01
-2.045595e-01
-2.072869e-01
-2.100144e-01
-2.127418e-01
-2.154693e-01
-2.181968e-01
-2.209242e-01
-2.236517e-01
-2.263791e-01
-2.291066e-01
-2.318341e-01
-2.345615e-01
-2.372890e-01
-2.400164e-01
-2.427439e-01
-2.454714e-01
-2.481988e-01
-2.509263e-01
-2.536537e-01
-2.563812e-01
-2.591087e-01
-2.618361e-01
-2.645636e-01
-2.672910e-01
-2.700185e-01
-2.727459e-01
-2.727459e-01
-2.727459e-01
-2.727459e-01
-2.727459e-01
-2.727459e-01
-2.727459e-01
-2.727459e-01
-2.727459e-01
-2.727459e-01
-2.727459e-01
-2.727459e-01
-2.727459e-01
-2.727459e-01
-2.727459e-01
-2.727459e-01
-2.727459e-01
-2.727459e-01
-2.727459e-01
-2.727459e-01
-2.727459e-01
-2.727459e-01
-2.727459e-01
-2.727459e-01
-2.727459e-01
-2.727459e-01
-2.727459e-01
-2.727459e-01
-2.727459e-01
-2.727459e-01
-2.727459e-01
-2.727459e-01
-2.727459e-01
-2.727459e-01
-2.727459e-01
-2.727459e-01
-2.727459e-01
-2.727459e-01
-2.727459e-01
-2.727459e-01
-2.727459e-01
-2.727459e-01
-2.727459e-01
-2.727459e-01
-2.727459e-01
-2.727459e-01
-2.727459e-01
-2.727459e-01
-2.727459e-01
-2.727459e-01
-2.727459e-01
-2.727459e-01
-2.727459e-01
-2.727459e-01
-2.727459e-01
-2.727459e-01
-2.727459e-01
-2.727459e-01
-2.727459e-01
-2.727459e-01
-2.727459e-01
-2.727459e-01
-2.727459e-01
-2.727459e-01
-2.727459e-01
-2.727459e-01
-2.727459e-01
-2.727459e-01
-2.727459e-01
-2.727459e-01
-2.727459e-01
-2.727459e-01
-2.727459e-01
-2.727459e-01
-2.727459e-01
-2.727459e-01
-2.727459e-01
-2.727459e-01
-2.727459e-01
-2.727459e-01
-2.727459e-01
-2.727459e-01
-2.727459e-01
-2.727459e-01
-2.727459e-01
-2.727459e-01
-2.727459e-01
-2.727459e-01
-2.727459e-01
-2.727459e-01
-2.727459e-01
-2.727459e-01
-2.727459e-01
-2.727459e-01
-2.727459e-01
-2.727459e-01
-2.727459e-01
-2.727459e-01
-2.727459e-01

SCALARS phis float 1
LOOKUP_TABLE default
7.000000e-01
7.270018e-01
7.000000e-01
7.000000e-01
7.000000e-01
7.000000e-01
7.000000e-01
7.000000e-01
7.000000e-01
7.000000e-01
7.000000e-01
7.000000e-01
7.000000e-01
7.000000e-01
7.000000e-01
7.000000e-01
7.000000e-01
7.000000e-01
7.000000e-01
7.000000e-01
7.000000e-01
7.000000e-01
7.000000e-01
7.000000e-01
7.000000e-01
7.000000e-01
7.000000e-01
7.000000e-01
7.000000e-01
7.000000e-01
7.000000e-01
7.000000e-01
7.000000e-01
7.000000e-01
7.000000e-01
7.000000e-01
7.000000e-01
7.000000e-01
7.000000e-01
7.000000e-01
7.000000e-01
7.000000e-01
7.000000e-01
7.000000e-01
7.000000e-01
7.000000e-01
7.000000e-01
7.000000e-01
7.000000e-01
7.000000e-01
7.000000e-01
7.000000e-01
7.000000e-01
7.000000e-01
7.000000e-01
7.000000e-01
7.000000e-01
7.000000e-01
7.000000e-01
7.000000e-01
7.000000e-01
7.000000e-01
7.000000e-01
7.000000e-01
7.000000e-01
7.000000e-01
7.000000e-01
7.000000e-01
7.000000e-01
7.000000e-01
7.000000e-01
7.000000e-01
7.000000e-01
7.000000e-01
7.000000e-01
7.000000e-01
7.000000e-01
7.000000e-01
7.000000e-01
7.000000e-01
7.000000e-01
7.000000e-01
7.000000e-01
7.000000e-01
7.000000e-01
7.000000e-01
7.000000e-01
7.000000e-01
7.000000e-01
7.000000e-01
7.000000e-01
7.000000e-01
7.000000e-01
7.000000e-01
7.000000e-01
7.000000e-01
7.000000e-01
7.000000e-01
7.000000e-01
7.000000e-01
7.000000e-01
7.000000e-01
7.267291e-01
7.264564e-01
7.261836e-01
7.259109e-01
7.256381e-01
7.253654e-01
7.250926e-01
7.248199e-01
7.245471e-01
7.242744e-01
7.240016e-01
7.237289e-01
7.234562e-01
7.231834e-01
7.229107e-01
7.226379e-01
7.223652e-01
7.220924e-01
7.218197e-01
7.215469e-01
7.212742e-01
7.210014e-01
7.207287e-01
7.204559e-01
7.201832e-01
7.199105e-01
7.196377e-01
7.193650e-01
7.190922e-01
7.188195e-01
7.185467e-01
7.182740e-01
7.180012e-01
7.177285e-01
7.174557e-01
7.171830e-01
7.169102e-01
7.166375e-01
7.163648e-01
7.160920e-01
7.158193e-01
7.155465e-01
7.152738e-01
7.150010e-01
7.147283e-01
7.144555e-01
7.141828e-01
7.139100e-01
7.136373e-01
7.133646e-01
7.130918e-01
7.128191e-01
7.125463e-01
7.122736e-01
7.120008e-01
7.117281e-01
7.114553e-01
7.111826e-01
7.109098e-01
7.106371e-01
7.103643e-01
7.100916e-01
7.098189e-01
7.095461e-01
7.092734e-01
7.090006e-01
7.087279e-01
7.084551e-01
7.081824e-01
7.079096e-01
7.076369e-01
7.073641e-01
7.070914e-01
7.068186e-01
7.065459e-01
7.062732e-01
7.060004e-01
7.057277e-01
7.054549e-01
7.051822e-01
7.049094e-01
7.046367e-01
7.043639e-01
7.040912e-01
7.038184e-01
7.035457e-01
7.032730e-01
7.030002e-01
7.027275e-01
7.024547e-01
7.021820e-01
7.019092e-01
7.016365e-01
7.013637e-01
7.010910e-01
7.008182e-01
7.005455e-01
7.002727e-01
7.000000e-01

SCALARS il float 1
LOOKUP_TABLE default
-2.727459e-01
-2.727459e-01
-2.727459e-01
-2.727459e-01
-2.727459e-01
-2.727459e-01
-2.727459e-01
-2.727459e-01
-2.727459e-01
-2.727459e-01
-2.727459e-01
-2.727459e-01
-2.727459e-01
-2.727459e-01
-2.727459e-01
-2.727459e-01
-2.727459e-01
-2.727459e-01
-2.727459e-01
-2.727459e-01
-2.727459e-01
-2.727459e-01
-2.727459e-01
-2.727459e-01
-2.727459e-01
-2.727459e-01
-2.727459e-01
-2.727459e-01
-2.727459e-01
-2.727459e-01
-2.727459e-01
-2.727459e-01
-2.727459e-01
-2.727459e-01
-2.727459e-01
-2.727459e-01
-2.727459e-01
-2.727459e-01
-2.727459e-01
-2.727459e-01
-2.727459e-01
-2.727459e-01
-2.727459e-01
-2.727459e-01
-2.727459e-01
-2.727459e-01
-2.727459e-01
-2.727459e-01
-2.727459e-01
-2.727459e-01
-2.727459e-01
-2.727459e-01
-2.727459e-01
-2.727459e-01
-2.727459e-01
-2.727459e-01
-2.727459e-01
-2.727459e-01
-2.727459e-01
-2.727459e-01
-2.727459e-01
-2.727459e-01
-2.727459e-01
-2.727459e-01
-2.727459e-01
-2.727459e-01
-2.727459e-01
-2.727459e-01
-2.727459e-01
-2.727459e-01
-2.727459e-01
-2.727459e-01
-2.727459e-01
-2.727459e-01
-2.727459e-01
-2.727459e-01
-2.727459e-01
-2.727459e-01
-2.727459e-01
-2.727459e-01
-2.727459e-01
-2.727459e-01
-2.727459e-01
-2.727459e-01
-2.727459e-01
-2.727459e-01
-2.727459e-01
-2.727459e-01
-2.727459e-01
-2.727459e-01
-2.727459e-01
-2.727459e-01
-2.727459e-01
-2.727459e-01
-2.727459e-01
-2.727459e-01
-2.727459e-01
-2.727459e-01
-2.727459e-01
-2.727459e-01
-2.727459e-01
-2.727459e-01
-2.727459e-01
-2.727459e-01
-2.727459e-01
-2.727459e-01
-2.727459e-01
-2.727459e-01
-2.727459e-01
-2.727459e-01
-2.727459e-01
-2.727459e-01
-2.727459e-01
-2.727459e-01
-2.727459e-01
-2.727459e-01
-2.727459e-01
-2.727459e-01
-2.727459e-01
-2.727459e-01
-2.727459e-01
-2.727459e-01
-2.727459e-01
-2.727459e-01
-2.727459e-01
-2.727459e-01
-2.727459e-01
-2.727459e-01
-2.727459e-01
-2.727459e-01
-2.727459e-01
-2.727459e-01
-2.727459e-01
-2.727459e-01
-2.727459e-01
-2.727459e-01
-2.727459e-01
-2.727459e-01
-2.727459e-01
-2.727459e-01
-2.727459e-01
-2.727459e-01
-2.727459e-01
-2.727459e-01
-2.727459e-01
-2.727459e-01
-2.727459e-01
-2.727459e-01
-2.727459e-01
-2.727459e-01
-2.727459e-01
-2.727459e-01
-2.727459e-01
-2.727459e-01
-2.727459e-01
-2.727459e-01
-2.727459e-01
-2.727459e-01
-2.727459e-01
-2.727459e-01
-2.727459e-01
-2.727459e-01
-2.727459e-01
-2.727459e-01
-2.727459e-01
-2.727459e-01
-2.727459e-01
-2.727459e-01
-2.727459e-01
-2.727459e-01
-2.727459e-01
-2.727459e-01
-2.727459e-01
-2.727459e-01
-2.727459e-01
-2.727459e-01
-2.727459e-01
-2.727459e-01
-2.727459e-01
-2.727459e-01
-2.727459e-01
-2.727459e-01
-2.727459e-01
-2.727459e-01
-2.727459e-01
-2.727459e-01
-2.727459e-01
-2.727459e-01
-2.727459e-01
-2.727459e-01
-2.727459e-01
-2.727459e-01
-2.727459e-01
-2.727459e-01
-2.727459e-01
-2.727459e-01
-2.727459e-01
-2.727459e-01
-2.727459e-01
-2.727459e-01
-2.727459e-01

SCALARS is float 1
LOOKUP_TABLE default
-7.308206e-02
2.727459e-01
-7.308206e-02
-7.308206e-02
-7.308206e-02
-7.308206e-02
-7.308206e-02
-7.308206e-02
-7.308206e-02
-7.308206e-02
-7.308206e-02
-7.308206e-02
-7.308206e-02
-7.308206e-02
-7.308206e-02
-7.308206e-02
-7.308206e-02
-7.308206e-02
-7.308206e-02
-7.308206e-02
-7.308206e-02
-7.308206e-02
-7.308206e-02
-7.308206e-02
-7.308206e-02
-7.308206e-02
-7.308206e-02
-7.308206e-02
-7.308206e-02
-7.308206e-02
-7.308206e-02
-7.308206e-02
-7.308206e-02
-7.308206e-02
-7.308206e-02
-7.308206e-02
-7.308206e-02
-7.308206e-02
-7.308206e-02
-7.308206e-02
-7.308206e-02
-7.308206e-02
-7.308206e-02
-7.308206e-02
-7.308206e-02
-7.308206e-02
-7.308206e-02
-7.308206e-02
-7.308206e-02
-7.308206e-02
-7.308206e-02
-7.308206e-02
-7.308206e-02
-7.308206e-02
-7.308206e-02
-7.308206e-02
-7.308206e-02
-7.308206e-02
-7.308206e-02
-7.308206e-02
-7.308206e-02
-7.308206e-02
-7.308206e-02
-7.308206e-02
-7.308206e-02
-7.308206e-02
-7.308206e-02
-7.308206e-02
-7.308206e-02
-7.308206e-02
-7.308206e-02
-7.308206e-02
-7.308206e-02
-7.308206e-02
-7.308206e-02
-7.308206e-02
-7.308206e-02
-7.308206e-02
-7.308206e-02
-7.308206e-02
-7.308206e-02
-7.308206e-02
-7.308206e-02
-7.308206e-02
-7.308206e-02
-7.308206e-02
-7.308206e-02
-7.308206e-02
-7.308206e-02
-7.308206e-02
-7.308206e-02
-7.308206e-02
-7.308206e-02
-7.308206e-02
-7.308206e-02
-7.308206e-02
-7.308206e-02
-7.308206e-02
-7.308206e-02
-7.308206e-02
-7.308206e-02
-7.308206e-02
2.727459e-01
2.727459e-01
2.727459e-01
2.727459e-01
2.727459e-01
2.727459e-01
2.727459e-01
2.727459e-01
2.727459e-01
2.727459e-01
2.727459e-01
2.727459e-01
2.727459e-01
2.727459e-01
2.727459e-01
2.727459e-01
2.727459e-01
2.727459e-01
2.727459e-01
2.727459e-01
2.727459e-01
2.727459e-01
2.727459e-01
2.727459e-01
2.727459e-01
2.727459e-01
2.727459e-01
2.727459e-01
2.727459e-01
2.727459e-01
2.727459e-01
2.727459e-01
2.727459e-01
2.727459e-01
2.727459e-01
2.727459e-01
2.727459e-01
2.727459e-01
2.727459e-01
2.727459e-01
2.727459e-01
2.727459e-01
2.727459e-01
2.727459e-01
2.727459e-01
2.727459e-01
2.727459e-01
2.727459e-01
2.727459e-01
2.727459e-01
2.727459e-01
2.727459e-01
2.727459e-01
2.727459e-01
2.727459e-01
2.727459e-01
2.727459e-01
2.727459e-01
2.727459e-01
2.727459e-01
2.727459e-01
2.727459e-01
2.727459e-01
2.727459e-01
2.727459e-01
2.727459e-01
2.727459e-01
2.727459e-01
2.727459e-01
2.727459e-01
2.727459e-01
2.727459e-01
2.727459e-01
2.727459e-01
2.727459e-01
2.727459e-01
2.727459e-01
2.727459e-01
2.727459e-01
2.727459e-01
2.727459e-01
2.727459e-01
2.727459e-01
2.727459e-01
2.727459e-01
2.727460e-01
2.727459e-01
2.727460e-01
2.727457e-01
2.727469e-01
2.727426e-01
2.727585e-01
2.726991e-01
2.729208e-01
2.720934e-01
2.751811e-01
2.636578e-01
3.066634e-01
1.461641e-01

SCALARS currentl float 1
LOOKUP_TABLE default
2.727459e-01
2.727459e-01
2.727459e-01
2.727459e-01
2.727459e-01
2.727459e-01
2.727459e-01
2.727459e-01
2.727459e-01
2.727459e-01
2.727459e-01
2.727459e-01
2.727459e-01
2.727459e-01
2.727459e-01
2.727459e-01
2.727459e-01
2.727459e-01
2.727459e-01
2.727459e-01
2.727459e-01
2.727459e-01
2.727459e-01
2.727459e-01
2.727459e-01
2.727459e-01
2.727459e-01
2.727459e-01
2.727459e-01
2.727459e-01
2.727459e-01
2.727459e-01
2.727459e-01
2.727459e-01
2.727459e-01
2.727459e-01
2.727459e-01
2.727459e-01
2.727459e-01
2.727459e-01
2.727459e-01
2.727459e-01
2.727459e-01
2.727459e-01
2.727459e-01
2.727459e-01
2.727459e-01
2.727459e-01
2.727459e-01
2.727459e-01
2.727459e-01
2.727459e-01
2.727459e-01
2.727459e-01
2.727459e-01
2.727459e-01
2.727459e-01
2.727459e-01
2.727459e-01
2.727459e-01
2.727459e-01
2.727459e-01
2.727459e-01
2.727459e-01
2.727459e-01
2.727459e-01
2.727459e-01
2.727459e-01
2.727459e-01
2.727459e-01
2.727459e-01
2.727459e-01
2.727459e-01
2.727459e-01
2.727459e-01
2.727459e-01
2.727459e-01
2.727459e-01
2.727459e-01
2.727459e-01
2.727459e-01
2.727459e-01
2.727459e-01
2.727459e-01
2.727459e-01
2.727459e-01
2.727459e-01
2.727459e-01
2.727459e-01
2.727459e-01
2.727459e-01
2.727459e-01
2.727459e-01
2.727459e-01
2.727459e-01
2.727459e-01
2.727459e-01
2.727459e-01
2.727459e-01
2.727459e-01
2.727459e-01
2.727459e-01
2.727459e-01
2.727459e-01
2.727459e-01
2.727459e-01
2.727459e-01
2.727459e-01
2.727459e-01
2.727459e-01
2.727459e-01
2.727459e-01
2.727459e-01
2.727459e-01
2.727459e-01
2.727459e-01
2.727459e-01
2.727459e-01
2.727459e-01
2.727459e-01
2.727459e-01
2.727459e-01
2.727459e-01
2.727459e-01
2.727459e-01
2.727459e-01
2.727459e-01
2.727459e-01
2.727459e-01
2.727459e-01
2.727459e-01
2.727459e-01
2.727459e-01
2.727459e-01
2.727459e-01
2.727459e-01
2.727459e-01
2.727459e-01
2.727459e-01
2.727459e-01
2.727459e-01
2.727459e-01
2.727459e-01
2.727459e-01
2.727459e-01
2.727459e-01
2.727459e-01
2.727459e-01
2.727459e-01
2.727459e-01
2.727459e-01
2.727459e-01
2.727459e-01
2.727459e-01
2.727459e-01
2.727459e-01
2.727459e-01
2.727459e-01
2.727459e-01
2.727459e-01
2.727459e-01
2.727459e-01
2.727459e-01
2.727459e-01
2.727459e-01
2.727459e-01
2.727459e-01
2.727459e-01
2.727459e-01
2.727459e-01
2.727459e-01
2.727459e-01
2.727459e-01
2.727459e-01
2.727459e-01
2.727459e-01
2.727459e-01
2.727459e-01
2.727459e-01
2.727459e-01
2.727459e-01
2.727459e-01
2.727459e-01
2.727459e-01
2.727459e-01
2.727459e-01
2.727459e-01
2.727459e-01
2.727459e-01
2.727459e-01
2.727459e-01
2.727459e-01
2.727459e-01
2.727459e-01
2.727459e-01
2.727459e-01
2.727459e-01
2.727459e-01
2.727459e-01
2.727459e-01

SCALARS currents float 1
LOOKUP_TABLE default
2.727459e-01
2.727459e-01
2.727459e-01
2.727459e-01
2.727459e-01
2.727459e-01
2.727459e-01
2.727459e-01
2.727459e-01
2.727459e-01
2.727459e-01
2.727459e-01
2.727459e-01
2.727459e-01
2.727459e-01
2.727459e-01
2.727459e-01
2.727459e-01
2.727459e-01
2.727459e-01
2.727459e-01
2.727459e-01
2.727459e-01
2.727459e-01
2.727459e-01
2.727459e-01
2.727459e-01
2.727459e-01
2.727459e-01
2.727459e-01
2.727459e-01
2.727459e-01
2.727459e-01
2.727459e-01
2.727459e-01
2.727459e-01
2.727459e-01
2.727459e-01
2.727459e-01
2.727459e-01
2.727459e-01
2.727459e-01
2.727459e-01
2.727459e-01
2.727459e-01
2.727459e-01
2.727459e-01
2.727459e-01
2.727459e-01
2.727459e-01
2.727459e-01
2.727459e-01
2.727459e-01
2.727459e-01
2.727459e-01
2.727459e-01
2.727459e-01
2.727459e-01
2.727459e-01
2.727459e-01
2.727459e-01
2.727459e-01
2.727459e-01
2.727459e-01
2.727459e-01
2.727459e-01
2.727459e-01
2.727459e-01
2.727459e-01
2.727459e-01
2.727459e-01
2.727459e-01
2.727459e-01
2.727459e-01
2.727459e-01
2.727459e-01
2.727459e-01
2.727459e-01
2.727459e-01
2.727459e-01
2.727459e-01
2.727459e-01
2.727459e-01
2.727459e-01
2.727459e-01
2.727459e-01
2.727459e-01
2.727459e-01
2.727459e-01
2.727459e-01
2.727459e-01
2.727459e-01
2.727459e-01
2.727459e-01
2.727459e-01
2.727459e-01
2.727459e-01
2.727459e-01
2.727459e-01
2.727459e-01
2.727459e-01
2.727459e-01
2.727459e-01
2.727459e-01
2.727459e-01
2.727459e-01
2.727459e-01
2.727459e-01
2.727459e-01
2.727459e-01
2.727459e-01
2.727459e-01
2.727459e-01
2.727459e-01
2.727459e-01
2.727459e-01
2.727459e-01
2.727459e-01
2.727459e-01
2.727459e-01
2.727459e-01
2.727459e-01
2.727459e-01
2.727459e-01
2.727459e-01
2.727459e-01
2.727459e-01
2.727459e-01
2.727459e-01
2.727459e-01
2.727459e-01
2.727459e-01
2.727459e-01
2.727459e-01
2.727459e-01
2.727459e-01
2.727459e-01
2.727459e-01
2.727459e-01
2.727459e-01
2.727459e-01
2.727459e-01
2.727459e-01
2.727459e-01
2.727459e-01
2.727459e-01
2.727459e-01
2.727459e-01
2.727459e-01
2.727459e-01
2.727459e-01
2.727459e-01
2.727459e-01
2.727459e-01
2.727459e-01
2.727459e-01
2.727459e-01
2.727459e-01
2.727459e-01
2.727459e-01
2.727459e-01
2.727459e-01
2.727459e-01
2.727459e-01
2.727459e-01
2.727459e-01
2.727459e-01
2.727459e-01
2.727459e-01
2.727459e-01
2.727459e-01
2.727459e-01
2.727459e-01
2.727459e-01
2.727459e-01
2.727459e-01
2.727459e-01
2.727459e-01
2.727459e-01
2.727459e-01
2.727459e-01
2.727459e-01
2.727459e-01
2.727459e-01
2.727459e-01
2.727459e-01
2.727459e-01
2.727459e-01
2.727459e-01
2.727459e-01
2.727459e-01
2.727459e-01
2.727459e-01
2.727459e-01
2.727459e-01
2.727459e-01
2.727459e-01
2.727459e-01
0.000000e+00
0.000000e+00

CELL_DATA 200
SCALARS mat_id int 1
LOOKUP_TABLE default
1
1
1
1
1
1
1
1
1
1
1
1
1
1
1
1
1
1
1
1
1
1
1
1
1
1
1
1
1
1
1
1
1
1
1
1
1
1
1
1
1
1
1
1
1
1
1
1
1
1
1
1
1
1
1
1
1
1
1
1
1
1
1
1
1
1
1
1
1
1
1
1
1
1
1
1
1
1
1
1
1
1
1
1
1
1
1
1
1
1
1
1
1
1
1
1
1
1
1
1
2
2
2
2
2
2
2
2
2
2
2
2
2
2
2
2
2
2
2
2
2
2
2
2
2
2
2
2
2
2
2
2
2
2
2
2
2
2
2
2
2
2
2
2
2
2
2
2
2
2
2
2
2
2
2
2
2
2
2
2
2
2
2
2
2
2
2
2
2
2
2
2
2
2
2
2
2
2
2
2
2
2
2
2
2
2
2
2
2
2
2
2
2
2
2
2
2
2
2
2
