# vtk DataFile Version 2.0
step 16 time 6.666667e-02 normalized time 6.666667e-01, generated by simple.py
ASCII
DATASET UNSTRUCTURED_GRID

POINTS 201 float
0.000000e+00 0.000000e+00 0.000000e+00
1.000000e+00 0.000000e+00 0.000000e+00
2.000000e+00 0.000000e+00 0.000000e+00
1.000000e-02 0.000000e+00 0.000000e+00
2.000000e-02 0.000000e+00 0.000000e+00
3.000000e-02 0.000000e+00 0.000000e+00
4.000000e-02 0.000000e+00 0.000000e+00
5.000000e-02 0.000000e+00 0.000000e+00
6.000000e-02 0.000000e+00 0.000000e+00
7.000000e-02 0.000000e+00 0.000000e+00
8.000000e-02 0.000000e+00 0.000000e+00
9.000000e-02 0.000000e+00 0.000000e+00
1.000000e-01 0.000000e+00 0.000000e+00
1.100000e-01 0.000000e+00 0.000000e+00
1.200000e-01 0.000000e+00 0.000000e+00
1.300000e-01 0.000000e+00 0.000000e+00
1.400000e-01 0.000000e+00 0.000000e+00
1.500000e-01 0.000000e+00 0.000000e+00
1.600000e-01 0.000000e+00 0.000000e+00
1.700000e-01 0.000000e+00 0.000000e+00
1.800000e-01 0.000000e+00 0.000000e+00
1.900000e-01 0.000000e+00 0.000000e+00
2.000000e-01 0.000000e+00 0.000000e+00
2.100000e-01 0.000000e+00 0.000000e+00
2.200000e-01 0.000000e+00 0.000000e+00
2.300000e-01 0.000000e+00 0.000000e+00
2.400000e-01 0.000000e+00 0.000000e+00
2.500000e-01 0.000000e+00 0.000000e+00
2.600000e-01 0.000000e+00 0.000000e+00
2.700000e-01 0.000000e+00 0.000000e+00
2.800000e-01 0.000000e+00 0.000000e+00
2.900000e-01 0.000000e+00 0.000000e+00
3.000000e-01 0.000000e+00 0.000000e+00
3.100000e-01 0.000000e+00 0.000000e+00
3.200000e-01 0.000000e+00 0.000000e+00
3.300000e-01 0.000000e+00 0.000000e+00
3.400000e-01 0.000000e+00 0.000000e+00
3.500000e-01 0.000000e+00 0.000000e+00
3.600000e-01 0.000000e+00 0.000000e+00
3.700000e-01 0.000000e+00 0.000000e+00
3.800000e-01 0.000000e+00 0.000000e+00
3.900000e-01 0.000000e+00 0.000000e+00
4.000000e-01 0.000000e+00 0.000000e+00
4.100000e-01 0.000000e+00 0.000000e+00
4.200000e-01 0.000000e+00 0.000000e+00
4.300000e-01 0.000000e+00 0.000000e+00
4.400000e-01 0.000000e+00 0.000000e+00
4.500000e-01 0.000000e+00 0.000000e+00
4.600000e-01 0.000000e+00 0.000000e+00
4.700000e-01 0.000000e+00 0.000000e+00
4.800000e-01 0.000000e+00 0.000000e+00
4.900000e-01 0.000000e+00 0.000000e+00
5.000000e-01 0.000000e+00 0.000000e+00
5.100000e-01 0.000000e+00 0.000000e+00
5.200000e-01 0.000000e+00 0.000000e+00
5.300000e-01 0.000000e+00 0.000000e+00
5.400000e-01 0.000000e+00 0.000000e+00
5.500000e-01 0.000000e+00 0.000000e+00
5.600000e-01 0.000000e+00 0.000000e+00
5.700000e-01 0.000000e+00 0.000000e+00
5.800000e-01 0.000000e+00 0.000000e+00
5.900000e-01 0.000000e+00 0.000000e+00
6.000000e-01 0.000000e+00 0.000000e+00
6.100000e-01 0.000000e+00 0.000000e+00
6.200000e-01 0.000000e+00 0.000000e+00
6.300000e-01 0.000000e+00 0.000000e+00
6.400000e-01 0.000000e+00 0.000000e+00
6.500000e-01 0.000000e+00 0.000000e+00
6.600000e-01 0.000000e+00 0.000000e+00
6.700000e-01 0.000000e+00 0.000000e+00
6.800000e-01 0.000000e+00 0.000000e+00
6.900000e-01 0.000000e+00 0.000000e+00
7.000000e-01 0.000000e+00 0.000000e+00
7.100000e-01 0.000000e+00 0.000000e+00
7.200000e-01 0.000000e+00 0.000000e+00
7.300000e-01 0.000000e+00 0.000000e+00
7.400000e-01 0.000000e+00 0.000000e+00
7.500000e-01 0.000000e+00 0.000000e+00
7.600000e-01 0.000000e+00 0.000000e+00
7.700000e-01 0.000000e+00 0.000000e+00
7.800000e-01 0.000000e+00 0.000000e+00
7.900000e-01 0.000000e+00 0.000000e+00
8.000000e-01 0.000000e+00 0.000000e+00
8.100000e-01 0.000000e+00 0.000000e+00
8.200000e-01 0.000000e+00 0.000000e+00
8.300000e-01 0.000000e+00 0.000000e+00
8.400000e-01 0.000000e+00 0.000000e+00
8.500000e-01 0.000000e+00 0.000000e+00
8.600000e-01 0.000000e+00 0.000000e+00
8.700000e-01 0.000000e+00 0.000000e+00
8.800000e-01 0.000000e+00 0.000000e+00
8.900000e-01 0.000000e+00 0.000000e+00
9.000000e-01 0.000000e+00 0.000000e+00
9.100000e-01 0.000000e+00 0.000000e+00
9.200000e-01 0.000000e+00 0.000000e+00
9.300000e-01 0.000000e+00 0.000000e+00
9.400000e-01 0.000000e+00 0.000000e+00
9.500000e-01 0.000000e+00 0.000000e+00
9.600000e-01 0.000000e+00 0.000000e+00
9.700000e-01 0.000000e+00 0.000000e+00
9.800000e-01 0.000000e+00 0.000000e+00
9.900000e-01 0.000000e+00 0.000000e+00
1.010000e+00 0.000000e+00 0.000000e+00
1.020000e+00 0.000000e+00 0.000000e+00
1.030000e+00 0.000000e+00 0.000000e+00
1.040000e+00 0.000000e+00 0.000000e+00
1.050000e+00 0.000000e+00 0.000000e+00
1.060000e+00 0.000000e+00 0.000000e+00
1.070000e+00 0.000000e+00 0.000000e+00
1.080000e+00 0.000000e+00 0.000000e+00
1.090000e+00 0.000000e+00 0.000000e+00
1.100000e+00 0.000000e+00 0.000000e+00
1.110000e+00 0.000000e+00 0.000000e+00
1.120000e+00 0.000000e+00 0.000000e+00
1.130000e+00 0.000000e+00 0.000000e+00
1.140000e+00 0.000000e+00 0.000000e+00
1.150000e+00 0.000000e+00 0.000000e+00
1.160000e+00 0.000000e+00 0.000000e+00
1.170000e+00 0.000000e+00 0.000000e+00
1.180000e+00 0.000000e+00 0.000000e+00
1.190000e+00 0.000000e+00 0.000000e+00
1.200000e+00 0.000000e+00 0.000000e+00
1.210000e+00 0.000000e+00 0.000000e+00
1.220000e+00 0.000000e+00 0.000000e+00
1.230000e+00 0.000000e+00 0.000000e+00
1.240000e+00 0.000000e+00 0.000000e+00
1.250000e+00 0.000000e+00 0.000000e+00
1.260000e+00 0.000000e+00 0.000000e+00
1.270000e+00 0.000000e+00 0.000000e+00
1.280000e+00 0.000000e+00 0.000000e+00
1.290000e+00 0.000000e+00 0.000000e+00
1.300000e+00 0.000000e+00 0.000000e+00
1.310000e+00 0.000000e+00 0.000000e+00
1.320000e+00 0.000000e+00 0.000000e+00
1.330000e+00 0.000000e+00 0.000000e+00
1.340000e+00 0.000000e+00 0.000000e+00
1.350000e+00 0.000000e+00 0.000000e+00
1.360000e+00 0.000000e+00 0.000000e+00
1.370000e+00 0.000000e+00 0.000000e+00
1.380000e+00 0.000000e+00 0.000000e+00
1.390000e+00 0.000000e+00 0.000000e+00
1.400000e+00 0.000000e+00 0.000000e+00
1.410000e+00 0.000000e+00 0.000000e+00
1.420000e+00 0.000000e+00 0.000000e+00
1.430000e+00 0.000000e+00 0.000000e+00
1.440000e+00 0.000000e+00 0.000000e+00
1.450000e+00 0.000000e+00 0.000000e+00
1.460000e+00 0.000000e+00 0.000000e+00
1.470000e+00 0.000000e+00 0.000000e+00
1.480000e+00 0.000000e+00 0.000000e+00
1.490000e+00 0.000000e+00 0.000000e+00
1.500000e+00 0.000000e+00 0.000000e+00
1.510000e+00 0.000000e+00 0.000000e+00
1.520000e+00 0.000000e+00 0.000000e+00
1.530000e+00 0.000000e+00 0.000000e+00
1.540000e+00 0.000000e+00 0.000000e+00
1.550000e+00 0.000000e+00 0.000000e+00
1.560000e+00 0.000000e+00 0.000000e+00
1.570000e+00 0.000000e+00 0.000000e+00
1.580000e+00 0.000000e+00 0.000000e+00
1.590000e+00 0.000000e+00 0.000000e+00
1.600000e+00 0.000000e+00 0.000000e+00
1.610000e+00 0.000000e+00 0.000000e+00
1.620000e+00 0.000000e+00 0.000000e+00
1.630000e+00 0.000000e+00 0.000000e+00
1.640000e+00 0.000000e+00 0.000000e+00
1.650000e+00 0.000000e+00 0.000000e+00
1.660000e+00 0.000000e+00 0.000000e+00
1.670000e+00 0.000000e+00 0.000000e+00
1.680000e+00 0.000000e+00 0.000000e+00
1.690000e+00 0.000000e+00 0.000000e+00
1.700000e+00 0.000000e+00 0.000000e+00
1.710000e+00 0.000000e+00 0.000000e+00
1.720000e+00 0.000000e+00 0.000000e+00
1.730000e+00 0.000000e+00 0.000000e+00
1.740000e+00 0.000000e+00 0.000000e+00
1.750000e+00 0.000000e+00 0.000000e+00
1.760000e+00 0.000000e+00 0.000000e+00
1.770000e+00 0.000000e+00 0.000000e+00
1.780000e+00 0.000000e+00 0.000000e+00
1.790000e+00 0.000000e+00 0.000000e+00
1.800000e+00 0.000000e+00 0.000000e+00
1.810000e+00 0.000000e+00 0.000000e+00
1.820000e+00 0.000000e+00 0.000000e+00
1.830000e+00 0.000000e+00 0.000000e+00
1.840000e+00 0.000000e+00 0.000000e+00
1.850000e+00 0.000000e+00 0.000000e+00
1.860000e+00 0.000000e+00 0.000000e+00
1.870000e+00 0.000000e+00 0.000000e+00
1.880000e+00 0.000000e+00 0.000000e+00
1.890000e+00 0.000000e+00 0.000000e+00
1.900000e+00 0.000000e+00 0.000000e+00
1.910000e+00 0.000000e+00 0.000000e+00
1.920000e+00 0.000000e+00 0.000000e+00
1.930000e+00 0.000000e+00 0.000000e+00
1.940000e+00 0.000000e+00 0.000000e+00
1.950000e+00 0.000000e+00 0.000000e+00
1.960000e+00 0.000000e+00 0.000000e+00
1.970000e+00 0.000000e+00 0.000000e+00
1.980000e+00 0.000000e+00 0.000000e+00
1.990000e+00 0.000000e+00 0.000000e+00

CELLS 200 600
2 0 3 
2 3 4 
2 4 5 
2 5 6 
2 6 7 
2 7 8 
2 8 9 
2 9 10 
2 10 11 
2 11 12 
2 12 13 
2 13 14 
2 14 15 
2 15 16 
2 16 17 
2 17 18 
2 18 19 
2 19 20 
2 20 21 
2 21 22 
2 22 23 
2 23 24 
2 24 25 
2 25 26 
2 26 27 
2 27 28 
2 28 29 
2 29 30 
2 30 31 
2 31 32 
2 32 33 
2 33 34 
2 34 35 
2 35 36 
2 36 37 
2 37 38 
2 38 39 
2 39 40 
2 40 41 
2 41 42 
2 42 43 
2 43 44 
2 44 45 
2 45 46 
2 46 47 
2 47 48 
2 48 49 
2 49 50 
2 50 51 
2 51 52 
2 52 53 
2 53 54 
2 54 55 
2 55 56 
2 56 57 
2 57 58 
2 58 59 
2 59 60 
2 60 61 
2 61 62 
2 62 63 
2 63 64 
2 64 65 
2 65 66 
2 66 67 
2 67 68 
2 68 69 
2 69 70 
2 70 71 
2 71 72 
2 72 73 
2 73 74 
2 74 75 
2 75 76 
2 76 77 
2 77 78 
2 78 79 
2 79 80 
2 80 81 
2 81 82 
2 82 83 
2 83 84 
2 84 85 
2 85 86 
2 86 87 
2 87 88 
2 88 89 
2 89 90 
2 90 91 
2 91 92 
2 92 93 
2 93 94 
2 94 95 
2 95 96 
2 96 97 
2 97 98 
2 98 99 
2 99 100 
2 100 101 
2 101 1 
2 1 102 
2 102 103 
2 103 104 
2 104 105 
2 105 106 
2 106 107 
2 107 108 
2 108 109 
2 109 110 
2 110 111 
2 111 112 
2 112 113 
2 113 114 
2 114 115 
2 115 116 
2 116 117 
2 117 118 
2 118 119 
2 119 120 
2 120 121 
2 121 122 
2 122 123 
2 123 124 
2 124 125 
2 125 126 
2 126 127 
2 127 128 
2 128 129 
2 129 130 
2 130 131 
2 131 132 
2 132 133 
2 133 134 
2 134 135 
2 135 136 
2 136 137 
2 137 138 
2 138 139 
2 139 140 
2 140 141 
2 141 142 
2 142 143 
2 143 144 
2 144 145 
2 145 146 
2 146 147 
2 147 148 
2 148 149 
2 149 150 
2 150 151 
2 151 152 
2 152 153 
2 153 154 
2 154 155 
2 155 156 
2 156 157 
2 157 158 
2 158 159 
2 159 160 
2 160 161 
2 161 162 
2 162 163 
2 163 164 
2 164 165 
2 165 166 
2 166 167 
2 167 168 
2 168 169 
2 169 170 
2 170 171 
2 171 172 
2 172 173 
2 173 174 
2 174 175 
2 175 176 
2 176 177 
2 177 178 
2 178 179 
2 179 180 
2 180 181 
2 181 182 
2 182 183 
2 183 184 
2 184 185 
2 185 186 
2 186 187 
2 187 188 
2 188 189 
2 189 190 
2 190 191 
2 191 192 
2 192 193 
2 193 194 
2 194 195 
2 195 196 
2 196 197 
2 197 198 
2 198 199 
2 199 200 
2 200 2 

CELL_TYPES 200
3
3
3
3
3
3
3
3
3
3
3
3
3
3
3
3
3
3
3
3
3
3
3
3
3
3
3
3
3
3
3
3
3
3
3
3
3
3
3
3
3
3
3
3
3
3
3
3
3
3
3
3
3
3
3
3
3
3
3
3
3
3
3
3
3
3
3
3
3
3
3
3
3
3
3
3
3
3
3
3
3
3
3
3
3
3
3
3
3
3
3
3
3
3
3
3
3
3
3
3
3
3
3
3
3
3
3
3
3
3
3
3
3
3
3
3
3
3
3
3
3
3
3
3
3
3
3
3
3
3
3
3
3
3
3
3
3
3
3
3
3
3
3
3
3
3
3
3
3
3
3
3
3
3
3
3
3
3
3
3
3
3
3
3
3
3
3
3
3
3
3
3
3
3
3
3
3
3
3
3
3
3
3
3
3
3
3
3
3
3
3
3
3
3
3
3
3
3
3
3

POINT_DATA 201

SCALARS node_groups int 1
LOOKUP_TABLE default
1
2
3
1
1
1
1
1
1
1
1
1
1
1
1
1
1
1
1
1
1
1
1
1
1
1
1
1
1
1
1
1
1
1
1
1
1
1
1
1
1
1
1
1
1
1
1
1
1
1
1
1
1
1
1
1
1
1
1
1
1
1
1
1
1
1
1
1
1
1
1
1
1
1
1
1
1
1
1
1
1
1
1
1
1
1
1
1
1
1
1
1
1
1
1
1
1
1
1
1
1
1
2
2
2
2
2
2
2
2
2
2
2
2
2
2
2
2
2
2
2
2
2
2
2
2
2
2
2
2
2
2
2
2
2
2
2
2
2
2
2
2
2
2
2
2
2
2
2
2
2
2
2
2
2
2
2
2
2
2
2
2
2
2
2
2
2
2
2
2
2
2
2
2
2
2
2
2
2
2
2
2
2
2
2
2
2
2
2
2
2
2
2
2
2
2
2
2
2
2
2

SCALARS phil float 1
LOOKUP_TABLE default
0.000000e+00
-5.180201e-02
-8.400721e-02
-5.180201e-04
-1.036040e-03
-1.554060e-03
-2.072081e-03
-2.590101e-03
-3.108121e-03
-3.626141e-03
-4.144161e-03
-4.662181e-03
-5.180201e-03
-5.698222e-03
-6.216242e-03
-6.734262e-03
-7.252282e-03
-7.770302e-03
-8.288322e-03
-8.806343e-03
-9.324363e-03
-9.842383e-03
-1.036040e-02
-1.087842e-02
-1.139644e-02
-1.191446e-02
-1.243248e-02
-1.295050e-02
-1.346852e-02
-1.398654e-02
-1.450456e-02
-1.502258e-02
-1.554060e-02
-1.605862e-02
-1.657664e-02
-1.709466e-02
-1.761269e-02
-1.813071e-02
-1.864873e-02
-1.916675e-02
-1.968477e-02
-2.020279e-02
-2.072081e-02
-2.123883e-02
-2.175685e-02
-2.227487e-02
-2.279289e-02
-2.331091e-02
-2.382893e-02
-2.434695e-02
-2.486497e-02
-2.538299e-02
-2.590101e-02
-2.641903e-02
-2.693705e-02
-2.745507e-02
-2.797309e-02
-2.849111e-02
-2.900913e-02
-2.952715e-02
-3.004517e-02
-3.056319e-02
-3.108121e-02
-3.159923e-02
-3.211725e-02
-3.263527e-02
-3.315329e-02
-3.367131e-02
-3.418933e-02
-3.470735e-02
-3.522537e-02
-3.574339e-02
-3.626141e-02
-3.677943e-02
-3.729745e-02
-3.781547e-02
-3.833349e-02
-3.885151e-02
-3.936953e-02
-3.988755e-02
-4.040557e-02
-4.092359e-02
-4.144161e-02
-4.195963e-02
-4.247765e-02
-4.299567e-02
-4.351369e-02
-4.403171e-02
-4.454973e-02
-4.506775e-02
-4.558577e-02
-4.610379e-02
-4.662181e-02
-4.713983e-02
-4.765785e-02
-4.817587e-02
-4.869389e-02
-4.921191e-02
-4.972993e-02
-5.024795e-02
-5.076597e-02
-5.128399e-02
-5.232000e-02
-5.283775e-02
-5.335507e-02
-5.387173e-02
-5.438751e-02
-5.490220e-02
-5.541562e-02
-5.592755e-02
-5.643783e-02
-5.694625e-02
-5.745267e-02
-5.795689e-02
-5.845878e-02
-5.895818e-02
-5.945493e-02
-5.994887e-02
-6.043988e-02
-6.092778e-02
-6.141245e-02
-6.189375e-02
-6.237155e-02
-6.284570e-02
-6.331602e-02
-6.378229e-02
-6.424444e-02
-6.470238e-02
-6.515593e-02
-6.560488e-02
-6.604899e-02
-6.648805e-02
-6.692185e-02
-6.735016e-02
-6.777280e-02
-6.818955e-02
-6.860024e-02
-6.900466e-02
-6.940264e-02
-6.979400e-02
-7.017857e-02
-7.055619e-02
-7.092667e-02
-7.128984e-02
-7.164554e-02
-7.199360e-02
-7.233386e-02
-7.266616e-02
-7.299033e-02
-7.330616e-02
-7.361340e-02
-7.391194e-02
-7.420605e-02
-7.449995e-02
-7.479338e-02
-7.508612e-02
-7.537794e-02
-7.566862e-02
-7.595795e-02
-7.624569e-02
-7.653165e-02
-7.681562e-02
-7.709741e-02
-7.737681e-02
-7.765364e-02
-7.792771e-02
-7.819883e-02
-7.846682e-02
-7.873149e-02
-7.899263e-02
-7.925008e-02
-7.950364e-02
-7.975313e-02
-7.999835e-02
-8.023904e-02
-8.047492e-02
-8.070583e-02
-8.093165e-02
-8.115212e-02
-8.136693e-02
-8.157576e-02
-8.177829e-02
-8.197421e-02
-8.216320e-02
-8.234494e-02
-8.251910e-02
-8.268539e-02
-8.284347e-02
-8.299303e-02
-8.313376e-02
-8.326533e-02
-8.338742e-02
-8.349969e-02
-8.360178e-02
-8.369335e-02
-8.377403e-02
-8.384346e-02
-8.390127e-02
-8.394705e-02
-8.398030e-02
-8.400046e-02

SCALARS phis float 1
LOOKUP_TABLE default
7.000000e-01
7.807531e-01
7.000000e-01
7.000000e-01
7.000000e-01
7.000000e-01
7.000000e-01
7.000000e-01
7.000000e-01
7.000000e-01
7.000000e-01
7.000000e-01
7.000000e-01
7.000000e-01
7.000000e-01
7.000000e-01
7.000000e-01
7.000000e-01
7.000000e-01
7.000000e-01
7.000000e-01
7.000000e-01
7.000000e-01
7.000000e-01
7.000000e-01
7.000000e-01
7.000000e-01
7.000000e-01
7.000000e-01
7.000000e-01
7.000000e-01
7.000000e-01
7.000000e-01
7.000000e-01
7.000000e-01
7.000000e-01
7.000000e-01
7.000000e-01
7.000000e-01
7.000000e-01
7.000000e-01
7.000000e-01
7.000000e-01
7.000000e-01
7.000000e-01
7.000000e-01
7.000000e-01
7.000000e-01
7.000000e-01
7.000000e-01
7.000000e-01
7.000000e-01
7.000000e-01
7.000000e-01
7.000000e-01
7.000000e-01
7.000000e-01
7.000000e-01
7.000000e-01
7.000000e-01
7.000000e-01
7.000000e-01
7.000000e-01
7.000000e-01
7.000000e-01
7.000000e-01
7.000000e-01
7.000000e-01
7.000000e-01
7.000000e-01
7.000000e-01
7.000000e-01
7.000000e-01
7.000000e-01
7.000000e-01
7.000000e-01
7.000000e-01
7.000000e-01
7.000000e-01
7.000000e-01
7.000000e-01
7.000000e-01
7.000000e-01
7.000000e-01
7.000000e-01
7.000000e-01
7.000000e-01
7.000000e-01
7.000000e-01
7.000000e-01
7.000000e-01
7.000000e-01
7.000000e-01
7.000000e-01
7.000000e-01
7.000000e-01
7.000000e-01
7.000000e-01
7.000000e-01
7.000000e-01
7.000000e-01
7.000000e-01
7.807504e-01
7.807248e-01
7.806736e-01
7.805969e-01
7.804951e-01
7.803683e-01
7.802169e-01
7.800411e-01
7.798414e-01
7.796181e-01
7.793716e-01
7.791025e-01
7.788111e-01
7.784979e-01
7.781634e-01
7.778082e-01
7.774330e-01
7.770383e-01
7.766251e-01
7.761939e-01
7.757457e-01
7.752813e-01
7.748015e-01
7.743073e-01
7.737994e-01
7.732787e-01
7.727451e-01
7.721987e-01
7.716398e-01
7.710684e-01
7.704849e-01
7.698895e-01
7.692826e-01
7.686646e-01
7.680358e-01
7.673967e-01
7.667477e-01
7.660893e-01
7.654219e-01
7.647460e-01
7.640623e-01
7.633713e-01
7.626738e-01
7.619706e-01
7.612622e-01
7.605497e-01
7.598338e-01
7.591154e-01
7.583954e-01
7.576747e-01
7.569513e-01
7.562049e-01
7.554329e-01
7.546355e-01
7.538129e-01
7.529654e-01
7.520932e-01
7.511967e-01
7.502762e-01
7.493321e-01
7.483649e-01
7.473750e-01
7.463629e-01
7.453289e-01
7.442737e-01
7.431977e-01
7.421017e-01
7.409864e-01
7.398523e-01
7.387004e-01
7.375315e-01
7.363463e-01
7.351457e-01
7.339307e-01
7.327022e-01
7.314606e-01
7.302063e-01
7.289392e-01
7.276594e-01
7.263673e-01
7.250630e-01
7.237469e-01
7.224193e-01
7.210805e-01
7.197310e-01
7.183711e-01
7.170013e-01
7.156221e-01
7.142340e-01
7.128374e-01
7.114329e-01
7.100212e-01
7.086030e-01
7.071789e-01
7.057498e-01
7.043165e-01
7.028799e-01
7.014407e-01
7.000000e-01

SCALARS il float 1
LOOKUP_TABLE default
-5.180201e-02
-5.180189e-02
-3.901178e-04
-5.180201e-02
-5.180201e-02
-5.180201e-02
-5.180201e-02
-5.180201e-02
-5.180201e-02
-5.180201e-02
-5.180201e-02
-5.180201e-02
-5.180201e-02
-5.180201e-02
-5.180201e-02
-5.180201e-02
-5.180201e-02
-5.180201e-02
-5.180201e-02
-5.180201e-02
-5.180201e-02
-5.180201e-02
-5.180201e-02
-5.180201e-02
-5.180201e-02
-5.180201e-02
-5.180201e-02
-5.180201e-02
-5.180201e-02
-5.180201e-02
-5.180201e-02
-5.180201e-02
-5.180201e-02
-5.180201e-02
-5.180201e-02
-5.180201e-02
-5.180201e-02
-5.180201e-02
-5.180201e-02
-5.180201e-02
-5.180201e-02
-5.180201e-02
-5.180201e-02
-5.180201e-02
-5.180201e-02
-5.180201e-02
-5.180201e-02
-5.180201e-02
-5.180201e-02
-5.180201e-02
-5.180201e-02
-5.180201e-02
-5.180201e-02
-5.180201e-02
-5.180201e-02
-5.180201e-02
-5.180201e-02
-5.180201e-02
-5.180201e-02
-5.180201e-02
-5.180201e-02
-5.180201e-02
-5.180201e-02
-5.180201e-02
-5.180201e-02
-5.180201e-02
-5.180201e-02
-5.180201e-02
-5.180201e-02
-5.180201e-02
-5.180201e-02
-5.180201e-02
-5.180201e-02
-5.180201e-02
-5.180201e-02
-5.180201e-02
-5.180201e-02
-5.180201e-02
-5.180201e-02
-5.180201e-02
-5.180201e-02
-5.180201e-02
-5.180201e-02
-5.180201e-02
-5.180201e-02
-5.180201e-02
-5.180201e-02
-5.180201e-02
-5.180201e-02
-5.180201e-02
-5.180201e-02
-5.180201e-02
-5.180201e-02
-5.180201e-02
-5.180201e-02
-5.180201e-02
-5.180201e-02
-5.180202e-02
-5.180201e-02
-5.180202e-02
-5.180201e-02
-5.180205e-02
-5.179065e-02
-5.175748e-02
-5.170222e-02
-5.162529e-02
-5.152728e-02
-5.140885e-02
-5.127069e-02
-5.111348e-02
-5.093794e-02
-5.074476e-02
-5.053468e-02
-5.030843e-02
-5.006665e-02
-4.980968e-02
-4.953744e-02
-4.925001e-02
-4.894774e-02
-4.863114e-02
-4.830080e-02
-4.795710e-02
-4.760012e-02
-4.722681e-02
-4.683211e-02
-4.642194e-02
-4.600638e-02
-4.557854e-02
-4.512876e-02
-4.465658e-02
-4.416227e-02
-4.364623e-02
-4.310896e-02
-4.255098e-02
-4.197284e-02
-4.137508e-02
-4.075828e-02
-4.012306e-02
-3.947000e-02
-3.879966e-02
-3.811222e-02
-3.740751e-02
-3.668547e-02
-3.594635e-02
-3.519055e-02
-3.441866e-02
-3.363061e-02
-3.282771e-02
-3.200168e-02
-3.116550e-02
-3.025625e-02
-2.954241e-02
-2.937036e-02
-2.937905e-02
-2.931006e-02
-2.923271e-02
-2.912882e-02
-2.900382e-02
-2.885686e-02
-2.868878e-02
-2.849997e-02
-2.829098e-02
-2.806233e-02
-2.781455e-02
-2.754810e-02
-2.726304e-02
-2.695905e-02
-2.663588e-02
-2.629365e-02
-2.593267e-02
-2.555328e-02
-2.515561e-02
-2.473940e-02
-2.430051e-02
-2.383212e-02
-2.334109e-02
-2.283967e-02
-2.231966e-02
-2.176924e-02
-2.118729e-02
-2.057357e-02
-1.992798e-02
-1.925058e-02
-1.854139e-02
-1.780046e-02
-1.702782e-02
-1.622350e-02
-1.538753e-02
-1.451992e-02
-1.362054e-02
-1.268880e-02
-1.172358e-02
-1.072379e-02
-9.688837e-03
-8.618207e-03
-7.511829e-03
-6.367826e-03
-5.189003e-03
-3.953177e-03
-2.706636e-03
-1.244576e-03

SCALARS is float 1
LOOKUP_TABLE default
-3.861275e-01
-1.984524e-03
-3.861275e-01
-3.861275e-01
-3.861275e-01
-3.861275e-01
-3.861275e-01
-3.861275e-01
-3.861275e-01
-3.861275e-01
-3.861275e-01
-3.861275e-01
-3.861275e-01
-3.861275e-01
-3.861275e-01
-3.861275e-01
-3.861275e-01
-3.861275e-01
-3.861275e-01
-3.861275e-01
-3.861275e-01
-3.861275e-01
-3.861275e-01
-3.861275e-01
-3.861275e-01
-3.861275e-01
-3.861275e-01
-3.861275e-01
-3.861275e-01
-3.861275e-01
-3.861275e-01
-3.861275e-01
-3.861275e-01
-3.861275e-01
-3.861275e-01
-3.861275e-01
-3.861275e-01
-3.861275e-01
-3.861275e-01
-3.861275e-01
-3.861275e-01
-3.861275e-01
-3.861275e-01
-3.861275e-01
-3.861275e-01
-3.861275e-01
-3.861275e-01
-3.861275e-01
-3.861275e-01
-3.861275e-01
-3.861275e-01
-3.861275e-01
-3.861275e-01
-3.861275e-01
-3.861275e-01
-3.861275e-01
-3.861275e-01
-3.861275e-01
-3.861275e-01
-3.861275e-01
-3.861275e-01
-3.861275e-01
-3.861275e-01
-3.861275e-01
-3.861275e-01
-3.861275e-01
-3.861275e-01
-3.861275e-01
-3.861275e-01
-3.861275e-01
-3.861275e-01
-3.861275e-01
-3.861275e-01
-3.861275e-01
-3.861275e-01
-3.861275e-01
-3.861275e-01
-3.861275e-01
-3.861275e-01
-3.861275e-01
-3.861275e-01
-3.861275e-01
-3.861275e-01
-3.861275e-01
-3.861275e-01
-3.861275e-01
-3.861275e-01
-3.861275e-01
-3.861275e-01
-3.861275e-01
-3.861275e-01
-3.861275e-01
-3.861275e-01
-3.861275e-01
-3.861275e-01
-3.861275e-01
-3.861275e-01
-3.861275e-01
-3.861275e-01
-3.861275e-01
-3.861275e-01
-3.861275e-01
1.210464e-02
3.864159e-02
6.389106e-02
8.927749e-02
1.143501e-01
1.391682e-01
1.636644e-01
1.878128e-01
2.115808e-01
2.349416e-01
2.578722e-01
2.803565e-01
3.023850e-01
3.239284e-01
3.449278e-01
3.653217e-01
3.850541e-01
4.040740e-01
4.223382e-01
4.398104e-01
4.564589e-01
4.722526e-01
4.871718e-01
5.011750e-01
5.143439e-01
5.271861e-01
5.400034e-01
5.526937e-01
5.652088e-01
5.774921e-01
5.894971e-01
6.011844e-01
6.125204e-01
6.234742e-01
6.340184e-01
6.441302e-01
6.537929e-01
6.629975e-01
6.717143e-01
6.798839e-01
6.874447e-01
6.943403e-01
7.005195e-01
7.059382e-01
7.105627e-01
7.143507e-01
7.173099e-01
7.192749e-01
7.207466e-01
7.197830e-01
7.325897e-01
7.594703e-01
7.846276e-01
8.100388e-01
8.351047e-01
8.599247e-01
8.844204e-01
9.085689e-01
9.323368e-01
9.556976e-01
9.786283e-01
1.001112e+00
1.023141e+00
1.044684e+00
1.065684e+00
1.086078e+00
1.105810e+00
1.124830e+00
1.143094e+00
1.160566e+00
1.177215e+00
1.193009e+00
1.207928e+00
1.221931e+00
1.235100e+00
1.247942e+00
1.260759e+00
1.273450e+00
1.285965e+00
1.298248e+00
1.310253e+00
1.321940e+00
1.333276e+00
1.344230e+00
1.354774e+00
1.364886e+00
1.374549e+00
1.383754e+00
1.392469e+00
1.400645e+00
1.408183e+00
1.415163e+00
1.421028e+00
1.427619e+00
1.427869e+00
1.447982e+00
1.390016e+00
1.619355e+00
7.722551e-01

CELL_DATA 200
SCALARS mat_id int 1
LOOKUP_TABLE default
1
1
1
1
1
1
1
1
1
1
1
1
1
1
1
1
1
1
1
1
1
1
1
1
1
1
1
1
1
1
1
1
1
1
1
1
1
1
1
1
1
1
1
1
1
1
1
1
1
1
1
1
1
1
1
1
1
1
1
1
1
1
1
1
1
1
1
1
1
1
1
1
1
1
1
1
1
1
1
1
1
1
1
1
1
1
1
1
1
1
1
1
1
1
1
1
1
1
1
1
2
2
2
2
2
2
2
2
2
2
2
2
2
2
2
2
2
2
2
2
2
2
2
2
2
2
2
2
2
2
2
2
2
2
2
2
2
2
2
2
2
2
2
2
2
2
2
2
2
2
2
2
2
2
2
2
2
2
2
2
2
2
2
2
2
2
2
2
2
2
2
2
2
2
2
2
2
2
2
2
2
2
2
2
2
2
2
2
2
2
2
2
2
2
2
2
2
2
2
2
