# vtk DataFile Version 2.0
step 0 time 0.000000e+00 normalized time 0.000000e+00, generated by simple.py
ASCII
DATASET UNSTRUCTURED_GRID

POINTS 556 float
-0.000000e+00 -0.000000e+00 0.000000e+00
0.000000e+00 1.000000e-04 0.000000e+00
0.000000e+00 -1.000000e-04 0.000000e+00
0.000000e+00 -2.000000e-04 0.000000e+00
1.000000e-03 0.000000e+00 0.000000e+00
1.000000e-03 1.000000e-04 0.000000e+00
1.000000e-03 -1.000000e-04 0.000000e+00
1.000000e-03 -2.000000e-04 0.000000e+00
2.500000e-04 1.000000e-04 0.000000e+00
7.500000e-04 1.000000e-04 0.000000e+00
2.500000e-04 -2.000000e-04 0.000000e+00
7.500000e-04 -2.000000e-04 0.000000e+00
2.500000e-04 6.000000e-04 0.000000e+00
7.500000e-04 6.000000e-04 0.000000e+00
7.500000e-04 -7.000000e-04 0.000000e+00
2.500000e-04 -7.000000e-04 0.000000e+00
0.000000e+00 2.000000e-05 0.000000e+00
0.000000e+00 4.000000e-05 0.000000e+00
0.000000e+00 6.000000e-05 0.000000e+00
0.000000e+00 8.000000e-05 0.000000e+00
5.000000e-05 1.000000e-04 0.000000e+00
1.000000e-04 1.000000e-04 0.000000e+00
1.500000e-04 1.000000e-04 0.000000e+00
2.000000e-04 1.000000e-04 0.000000e+00
2.500000e-04 1.500000e-04 0.000000e+00
2.500000e-04 2.000000e-04 0.000000e+00
2.500000e-04 2.500000e-04 0.000000e+00
2.500000e-04 3.000000e-04 0.000000e+00
2.500000e-04 3.500000e-04 0.000000e+00
2.500000e-04 4.000000e-04 0.000000e+00
2.500000e-04 4.500000e-04 0.000000e+00
2.500000e-04 5.000000e-04 0.000000e+00
2.500000e-04 5.500000e-04 0.000000e+00
3.000000e-04 6.000000e-04 0.000000e+00
3.500000e-04 6.000000e-04 0.000000e+00
4.000000e-04 6.000000e-04 0.000000e+00
4.500000e-04 6.000000e-04 0.000000e+00
5.000000e-04 6.000000e-04 0.000000e+00
5.500000e-04 6.000000e-04 0.000000e+00
6.000000e-04 6.000000e-04 0.000000e+00
6.500000e-04 6.000000e-04 0.000000e+00
7.000000e-04 6.000000e-04 0.000000e+00
7.500000e-04 5.500000e-04 0.000000e+00
7.500000e-04 5.000000e-04 0.000000e+00
7.500000e-04 4.500000e-04 0.000000e+00
7.500000e-04 4.000000e-04 0.000000e+00
7.500000e-04 3.500000e-04 0.000000e+00
7.500000e-04 3.000000e-04 0.000000e+00
7.500000e-04 2.500000e-04 0.000000e+00
7.500000e-04 2.000000e-04 0.000000e+00
7.500000e-04 1.500000e-04 0.000000e+00
8.000000e-04 1.000000e-04 0.000000e+00
8.500000e-04 1.000000e-04 0.000000e+00
9.000000e-04 1.000000e-04 0.000000e+00
9.500000e-04 1.000000e-04 0.000000e+00
3.000000e-04 1.000000e-04 0.000000e+00
3.500000e-04 1.000000e-04 0.000000e+00
4.000000e-04 1.000000e-04 0.000000e+00
4.500000e-04 1.000000e-04 0.000000e+00
5.000000e-04 1.000000e-04 0.000000e+00
5.500000e-04 1.000000e-04 0.000000e+00
6.000000e-04 1.000000e-04 0.000000e+00
6.500000e-04 1.000000e-04 0.000000e+00
7.000000e-04 1.000000e-04 0.000000e+00
1.000000e-03 8.000000e-05 0.000000e+00
1.000000e-03 6.000000e-05 0.000000e+00
1.000000e-03 4.000000e-05 0.000000e+00
1.000000e-03 2.000000e-05 0.000000e+00
9.500000e-04 0.000000e+00 0.000000e+00
9.000000e-04 0.000000e+00 0.000000e+00
8.500000e-04 0.000000e+00 0.000000e+00
8.000000e-04 0.000000e+00 0.000000e+00
7.500000e-04 0.000000e+00 0.000000e+00
7.000000e-04 0.000000e+00 0.000000e+00
6.500000e-04 0.000000e+00 0.000000e+00
6.000000e-04 0.000000e+00 0.000000e+00
5.500000e-04 0.000000e+00 0.000000e+00
5.000000e-04 0.000000e+00 0.000000e+00
4.500000e-04 0.000000e+00 0.000000e+00
4.000000e-04 0.000000e+00 0.000000e+00
3.500000e-04 0.000000e+00 0.000000e+00
3.000000e-04 0.000000e+00 0.000000e+00
2.500000e-04 0.000000e+00 0.000000e+00
2.000000e-04 0.000000e+00 0.000000e+00
1.500000e-04 0.000000e+00 0.000000e+00
1.000000e-04 0.000000e+00 0.000000e+00
5.000000e-05 0.000000e+00 0.000000e+00
0.000000e+00 -2.000000e-05 0.000000e+00
0.000000e+00 -4.000000e-05 0.000000e+00
0.000000e+00 -6.000000e-05 0.000000e+00
0.000000e+00 -8.000000e-05 0.000000e+00
5.000000e-05 -1.000000e-04 0.000000e+00
1.000000e-04 -1.000000e-04 0.000000e+00
1.500000e-04 -1.000000e-04 0.000000e+00
2.000000e-04 -1.000000e-04 0.000000e+00
2.500000e-04 -1.000000e-04 0.000000e+00
3.000000e-04 -1.000000e-04 0.000000e+00
3.500000e-04 -1.000000e-04 0.000000e+00
4.000000e-04 -1.000000e-04 0.000000e+00
4.500000e-04 -1.000000e-04 0.000000e+00
5.000000e-04 -1.000000e-04 0.000000e+00
5.500000e-04 -1.000000e-04 0.000000e+00
6.000000e-04 -1.000000e-04 0.000000e+00
6.500000e-04 -1.000000e-04 0.000000e+00
7.000000e-04 -1.000000e-04 0.000000e+00
7.500000e-04 -1.000000e-04 0.000000e+00
8.000000e-04 -1.000000e-04 0.000000e+00
8.500000e-04 -1.000000e-04 0.000000e+00
9.000000e-04 -1.000000e-04 0.000000e+00
9.500000e-04 -1.000000e-04 0.000000e+00
1.000000e-03 -2.000000e-05 0.000000e+00
1.000000e-03 -4.000000e-05 0.000000e+00
1.000000e-03 -6.000000e-05 0.000000e+00
1.000000e-03 -8.000000e-05 0.000000e+00
1.000000e-03 -1.200000e-04 0.000000e+00
1.000000e-03 -1.400000e-04 0.000000e+00
1.000000e-03 -1.600000e-04 0.000000e+00
1.000000e-03 -1.800000e-04 0.000000e+00
9.500000e-04 -2.000000e-04 0.000000e+00
9.000000e-04 -2.000000e-04 0.000000e+00
8.500000e-04 -2.000000e-04 0.000000e+00
8.000000e-04 -2.000000e-04 0.000000e+00
7.000000e-04 -2.000000e-04 0.000000e+00
6.500000e-04 -2.000000e-04 0.000000e+00
6.000000e-04 -2.000000e-04 0.000000e+00
5.500000e-04 -2.000000e-04 0.000000e+00
5.000000e-04 -2.000000e-04 0.000000e+00
4.500000e-04 -2.000000e-04 0.000000e+00
4.000000e-04 -2.000000e-04 0.000000e+00
3.500000e-04 -2.000000e-04 0.000000e+00
3.000000e-04 -2.000000e-04 0.000000e+00
2.000000e-04 -2.000000e-04 0.000000e+00
1.500000e-04 -2.000000e-04 0.000000e+00
1.000000e-04 -2.000000e-04 0.000000e+00
5.000000e-05 -2.000000e-04 0.000000e+00
0.000000e+00 -1.800000e-04 0.000000e+00
0.000000e+00 -1.600000e-04 0.000000e+00
0.000000e+00 -1.400000e-04 0.000000e+00
0.000000e+00 -1.200000e-04 0.000000e+00
2.500000e-04 -2.500000e-04 0.000000e+00
2.500000e-04 -3.000000e-04 0.000000e+00
2.500000e-04 -3.500000e-04 0.000000e+00
2.500000e-04 -4.000000e-04 0.000000e+00
2.500000e-04 -4.500000e-04 0.000000e+00
2.500000e-04 -5.000000e-04 0.000000e+00
2.500000e-04 -5.500000e-04 0.000000e+00
2.500000e-04 -6.000000e-04 0.000000e+00
2.500000e-04 -6.500000e-04 0.000000e+00
3.000000e-04 -7.000000e-04 0.000000e+00
3.500000e-04 -7.000000e-04 0.000000e+00
4.000000e-04 -7.000000e-04 0.000000e+00
4.500000e-04 -7.000000e-04 0.000000e+00
5.000000e-04 -7.000000e-04 0.000000e+00
5.500000e-04 -7.000000e-04 0.000000e+00
6.000000e-04 -7.000000e-04 0.000000e+00
6.500000e-04 -7.000000e-04 0.000000e+00
7.000000e-04 -7.000000e-04 0.000000e+00
7.500000e-04 -6.500000e-04 0.000000e+00
7.500000e-04 -6.000000e-04 0.000000e+00
7.500000e-04 -5.500000e-04 0.000000e+00
7.500000e-04 -5.000000e-04 0.000000e+00
7.500000e-04 -4.500000e-04 0.000000e+00
7.500000e-04 -4.000000e-04 0.000000e+00
7.500000e-04 -3.500000e-04 0.000000e+00
7.500000e-04 -3.000000e-04 0.000000e+00
7.500000e-04 -2.500000e-04 0.000000e+00
3.000000e-04 1.500000e-04 0.000000e+00
3.500000e-04 1.500000e-04 0.000000e+00
4.000000e-04 1.500000e-04 0.000000e+00
4.500000e-04 1.500000e-04 0.000000e+00
5.000000e-04 1.500000e-04 0.000000e+00
5.500000e-04 1.500000e-04 0.000000e+00
6.000000e-04 1.500000e-04 0.000000e+00
6.500000e-04 1.500000e-04 0.000000e+00
7.000000e-04 1.500000e-04 0.000000e+00
3.000000e-04 2.000000e-04 0.000000e+00
3.500000e-04 2.000000e-04 0.000000e+00
4.000000e-04 2.000000e-04 0.000000e+00
4.500000e-04 2.000000e-04 0.000000e+00
5.000000e-04 2.000000e-04 0.000000e+00
5.500000e-04 2.000000e-04 0.000000e+00
6.000000e-04 2.000000e-04 0.000000e+00
6.500000e-04 2.000000e-04 0.000000e+00
7.000000e-04 2.000000e-04 0.000000e+00
3.000000e-04 2.500000e-04 0.000000e+00
3.500000e-04 2.500000e-04 0.000000e+00
4.000000e-04 2.500000e-04 0.000000e+00
4.500000e-04 2.500000e-04 0.000000e+00
5.000000e-04 2.500000e-04 0.000000e+00
5.500000e-04 2.500000e-04 0.000000e+00
6.000000e-04 2.500000e-04 0.000000e+00
6.500000e-04 2.500000e-04 0.000000e+00
7.000000e-04 2.500000e-04 0.000000e+00
3.000000e-04 3.000000e-04 0.000000e+00
3.500000e-04 3.000000e-04 0.000000e+00
4.000000e-04 3.000000e-04 0.000000e+00
4.500000e-04 3.000000e-04 0.000000e+00
5.000000e-04 3.000000e-04 0.000000e+00
5.500000e-04 3.000000e-04 0.000000e+00
6.000000e-04 3.000000e-04 0.000000e+00
6.500000e-04 3.000000e-04 0.000000e+00
7.000000e-04 3.000000e-04 0.000000e+00
3.000000e-04 3.500000e-04 0.000000e+00
3.500000e-04 3.500000e-04 0.000000e+00
4.000000e-04 3.500000e-04 0.000000e+00
4.500000e-04 3.500000e-04 0.000000e+00
5.000000e-04 3.500000e-04 0.000000e+00
5.500000e-04 3.500000e-04 0.000000e+00
6.000000e-04 3.500000e-04 0.000000e+00
6.500000e-04 3.500000e-04 0.000000e+00
7.000000e-04 3.500000e-04 0.000000e+00
3.000000e-04 4.000000e-04 0.000000e+00
3.500000e-04 4.000000e-04 0.000000e+00
4.000000e-04 4.000000e-04 0.000000e+00
4.500000e-04 4.000000e-04 0.000000e+00
5.000000e-04 4.000000e-04 0.000000e+00
5.500000e-04 4.000000e-04 0.000000e+00
6.000000e-04 4.000000e-04 0.000000e+00
6.500000e-04 4.000000e-04 0.000000e+00
7.000000e-04 4.000000e-04 0.000000e+00
3.000000e-04 4.500000e-04 0.000000e+00
3.500000e-04 4.500000e-04 0.000000e+00
4.000000e-04 4.500000e-04 0.000000e+00
4.500000e-04 4.500000e-04 0.000000e+00
5.000000e-04 4.500000e-04 0.000000e+00
5.500000e-04 4.500000e-04 0.000000e+00
6.000000e-04 4.500000e-04 0.000000e+00
6.500000e-04 4.500000e-04 0.000000e+00
7.000000e-04 4.500000e-04 0.000000e+00
3.000000e-04 5.000000e-04 0.000000e+00
3.500000e-04 5.000000e-04 0.000000e+00
4.000000e-04 5.000000e-04 0.000000e+00
4.500000e-04 5.000000e-04 0.000000e+00
5.000000e-04 5.000000e-04 0.000000e+00
5.500000e-04 5.000000e-04 0.000000e+00
6.000000e-04 5.000000e-04 0.000000e+00
6.500000e-04 5.000000e-04 0.000000e+00
7.000000e-04 5.000000e-04 0.000000e+00
3.000000e-04 5.500000e-04 0.000000e+00
3.500000e-04 5.500000e-04 0.000000e+00
4.000000e-04 5.500000e-04 0.000000e+00
4.500000e-04 5.500000e-04 0.000000e+00
5.000000e-04 5.500000e-04 0.000000e+00
[...]
POINT_DATA 556

SCALARS node_groups int 1
LOOKUP_TABLE default
0
0
0
0
0
0
0
0
0
0
0
0
0
0
0
0
0
0
0
0
0
0
0
0
0
0
0
0
0
0
0
0
0
0
0
0
0
0
0
0
0
0
0
0
0
0
0
0
0
0
0
0
0
0
0
0
0
0
0
0
0
0
0
0
0
0
0
0
0
0
0
0
0
0
0
0
0
0
0
0
0
0
0
0
0
0
0
0
0
0
0
0
0
0
0
0
0
0
0
0
0
0
0
0
0
0
0
0
0
0
0
0
0
0
0
0
0
0
0
0
0
0
0
0
0
0
0
0
0
0
0
0
0
0
0
0
0
0
0
0
0
0
0
0
0
0
0
0
0
0
0
0
0
0
0
0
0
0
0
0
0
0
0
0
0
0
0
0
0
0
0
0
0
0
0
0
0
0
0
0
0
0
0
0
0
0
0
0
0
0
0
0
0
0
0
0
0
0
0
0
0
0
0
0
0
0
0
0
0
0
0
0
0
0
0
0
0
0
0
0
0
0
0
0
0
0
0
0
0
0
0
0
0
0
0
0
0
0
0
0
0
0
0
0
0
0
0
0
0
0
0
0
0
0
0
0
0
0
0
0
0
0
0
0
0
0
0
0
0
0
0
0
0
0
0
0
0
0
0
0
0
0
0
0
0
0
0
0
0
0
0
0
0
0
0
0
0
0
0
0
0
0
0
0
0
0
0
0
0
0
0
0
0
0
0
0
0
0
0
0
0
0
0
0
0
0
0
0
0
0
0
0
0
0
0
0
0
0
0
0
0
0
0
0
0
0
0
0
0
0
0
0
0
0
0
0
0
0
0
0
0
0
0
0
0
0
0
0
0
0
0
0
0
0
0
0
0
0
0
0
0
0
0
0
0
0
0
0
0
0
0
0
0
0
0
0
0
0
0
0
0
0
0
0
0
0
0
0
0
0
0
0
0
0
0
0
0
0
0
0
0
0
0
0
0
0
0
0
0
0
0
0
0
0
0
0
0
0
0
0
0
0
0
0
0
0
0
0
0
0
0
0
0
0
0
0
0
0
0
0
0
0
0
0
0
0
0
0
0
0
0
0
0
0
0
0
0
0
0
0
0
0
0
0
0
0
0
0
0
0
0
0
0
0
0
0
0
0
0
0
0
0
0
0
0
0
0
0
0
0
0
0
0
0
0
0
0
0
0
0
0
0
0
0
0
0
0
0
0
0
0
0
0
0
0
0
0
0
0
0
0
0
0
0
0
0
0
0
0
0
0
0
0
0
0
0

SCALARS T float 1
LOOKUP_TABLE default
1.199492e+03
1.199496e+03
1.199479e+03
1.199475e+03
1.199492e+03
1.199496e+03
1.199479e+03
1.199475e+03
1.199537e+03
1.199537e+03
1.199522e+03
1.199522e+03
1.199550e+03
1.199550e+03
1.199539e+03
1.199539e+03
1.199493e+03
1.199495e+03
1.199496e+03
1.199496e+03
1.199498e+03
1.199501e+03
1.199508e+03
1.199517e+03
1.199546e+03
1.199548e+03
1.199549e+03
1.199550e+03
1.199550e+03
1.199550e+03
1.199550e+03
1.199550e+03
1.199550e+03
1.199550e+03
1.199550e+03
1.199550e+03
1.199550e+03
1.199550e+03
1.199550e+03
1.199550e+03
1.199550e+03
1.199550e+03
1.199550e+03
1.199550e+03
1.199550e+03
1.199550e+03
1.199550e+03
1.199550e+03
1.199549e+03
1.199548e+03
1.199546e+03
1.199517e+03
1.199508e+03
1.199501e+03
1.199498e+03
1.199546e+03
1.199551e+03
1.199554e+03
1.199555e+03
1.199556e+03
1.199555e+03
1.199554e+03
1.199551e+03
1.199546e+03
1.199496e+03
1.199496e+03
1.199495e+03
1.199493e+03
1.199493e+03
1.199496e+03
1.199502e+03
1.199510e+03
1.199518e+03
1.199526e+03
1.199532e+03
1.199536e+03
1.199538e+03
1.199539e+03
1.199538e+03
1.199536e+03
1.199532e+03
1.199526e+03
1.199518e+03
1.199510e+03
1.199502e+03
1.199496e+03
1.199493e+03
1.199489e+03
1.199487e+03
1.199484e+03
1.199481e+03
1.199480e+03
1.199484e+03
1.199490e+03
1.199498e+03
1.199507e+03
1.199516e+03
1.199522e+03
1.199527e+03
1.199529e+03
1.199530e+03
1.199529e+03
1.199527e+03
1.199522e+03
1.199516e+03
1.199507e+03
1.199498e+03
1.199490e+03
1.199484e+03
1.199480e+03
1.199489e+03
1.199487e+03
1.199484e+03
1.199481e+03
1.199479e+03
1.199478e+03
1.199478e+03
1.199476e+03
1.199477e+03
1.199481e+03
1.199488e+03
1.199498e+03
1.199534e+03
1.199539e+03
1.199543e+03
1.199545e+03
1.199546e+03
1.199545e+03
1.199543e+03
1.199539e+03
1.199534e+03
1.199498e+03
1.199488e+03
1.199481e+03
1.199477e+03
1.199476e+03
1.199478e+03
1.199478e+03
1.199479e+03
1.199534e+03
1.199536e+03
1.199538e+03
1.199538e+03
1.199539e+03
1.199539e+03
1.199539e+03
1.199539e+03
1.199539e+03
1.199539e+03
1.199539e+03
1.199539e+03
1.199539e+03
1.199539e+03
1.199539e+03
1.199539e+03
1.199539e+03
1.199539e+03
1.199539e+03
1.199539e+03
1.199539e+03
1.199539e+03
1.199539e+03
1.199538e+03
1.199538e+03
1.199536e+03
1.199534e+03
1.199547e+03
1.199550e+03
1.199552e+03
1.199553e+03
1.199554e+03
1.199553e+03
1.199552e+03
1.199550e+03
1.199547e+03
1.199549e+03
1.199550e+03
1.199551e+03
1.199552e+03
1.199552e+03
1.199552e+03
1.199551e+03
1.199550e+03
1.199549e+03
1.199550e+03
1.199550e+03
1.199551e+03
1.199551e+03
1.199551e+03
1.199551e+03
1.199551e+03
1.199550e+03
1.199550e+03
1.199550e+03
1.199550e+03
1.199551e+03
1.199551e+03
1.199551e+03
1.199551e+03
1.199551e+03
1.199550e+03
1.199550e+03
1.199550e+03
1.199550e+03
1.199550e+03
1.199551e+03
1.199551e+03
1.199551e+03
1.199550e+03
1.199550e+03
1.199550e+03
1.199550e+03
1.199550e+03
1.199550e+03
1.199550e+03
1.199551e+03
1.199550e+03
1.199550e+03
1.199550e+03
1.199550e+03
1.199550e+03
1.199550e+03
1.199550e+03
1.199550e+03
1.199550e+03
1.199550e+03
1.199550e+03
1.199550e+03
1.199550e+03
1.199550e+03
1.199550e+03
1.199550e+03
1.199550e+03
1.199550e+03
1.199550e+03
1.199550e+03
1.199550e+03
1.199550e+03
1.199550e+03
1.199550e+03
1.199550e+03
1.199550e+03
1.199550e+03
1.199550e+03
1.199550e+03
1.199550e+03
1.199550e+03
1.199497e+03
1.199501e+03
1.199507e+03
1.199517e+03
1.199531e+03
1.199541e+03
1.199546e+03
1.199550e+03
1.199551e+03
1.199552e+03
1.199551e+03
1.199550e+03
1.199546e+03
1.199541e+03
1.199531e+03
1.199517e+03
1.199507e+03
1.199501e+03
1.199497e+03
1.199497e+03
1.199500e+03
1.199507e+03
1.199516e+03
1.199527e+03
1.199536e+03
1.199542e+03
1.199546e+03
1.199548e+03
1.199548e+03
1.199548e+03
1.199546e+03
1.199542e+03
1.199536e+03
1.199527e+03
1.199516e+03
1.199507e+03
1.199500e+03
1.199497e+03
1.199496e+03
1.199499e+03
1.199506e+03
1.199514e+03
1.199524e+03
1.199532e+03
1.199538e+03
1.199542e+03
1.199544e+03
1.199545e+03
1.199544e+03
1.199542e+03
1.199538e+03
1.199532e+03
1.199524e+03
1.199514e+03
1.199506e+03
1.199499e+03
1.199496e+03
1.199494e+03
1.199498e+03
1.199504e+03
1.199512e+03
1.199521e+03
1.199529e+03
1.199535e+03
1.199539e+03
1.199541e+03
1.199542e+03
1.199541e+03
1.199539e+03
1.199535e+03
1.199529e+03
1.199521e+03
1.199512e+03
1.199504e+03
1.199498e+03
1.199494e+03
1.199491e+03
1.199488e+03
1.199485e+03
1.199482e+03
1.199494e+03
1.199492e+03
1.199489e+03
1.199486e+03
1.199500e+03
1.199497e+03
1.199495e+03
1.199492e+03
1.199507e+03
1.199505e+03
1.199502e+03
1.199499e+03
1.199515e+03
1.199513e+03
1.199510e+03
1.199508e+03
1.199523e+03
1.199520e+03
1.199518e+03
1.199516e+03
1.199529e+03
1.199526e+03
1.199524e+03
1.199522e+03
1.199533e+03
1.199530e+03
1.199528e+03
1.199526e+03
1.199535e+03
1.199533e+03
1.199531e+03
1.199529e+03
1.199536e+03
1.199534e+03
1.199532e+03
1.199530e+03
1.199535e+03
1.199533e+03
1.199531e+03
1.199529e+03
1.199533e+03
1.199530e+03
1.199528e+03
1.199526e+03
1.199529e+03
1.199526e+03
1.199524e+03
1.199522e+03
1.199523e+03
1.199520e+03
1.199518e+03
1.199516e+03
1.199515e+03
1.199513e+03
1.199510e+03
1.199508e+03
1.199507e+03
1.199505e+03
1.199502e+03
1.199499e+03
1.199500e+03
1.199497e+03
1.199495e+03
1.199492e+03
1.199494e+03
1.199492e+03
1.199489e+03
1.199486e+03
1.199491e+03
1.199488e+03
1.199485e+03
1.199482e+03
1.199480e+03
1.199484e+03
1.199490e+03
1.199499e+03
1.199509e+03
1.199518e+03
1.199525e+03
1.199529e+03
1.199532e+03
1.199533e+03
1.199532e+03
1.199529e+03
1.199525e+03
1.199518e+03
1.199509e+03
1.199499e+03
1.199490e+03
1.199484e+03
1.199480e+03
1.199480e+03
1.199484e+03
1.199490e+03
1.199500e+03
1.199511e+03
1.199521e+03
1.199528e+03
1.199532e+03
1.199535e+03
1.199536e+03
1.199535e+03
1.199532e+03
1.199528e+03
1.199521e+03
1.199511e+03
1.199500e+03
1.199490e+03
1.199484e+03
1.199480e+03
1.199479e+03
1.199483e+03
1.199490e+03
1.199500e+03
1.199514e+03
1.199525e+03
1.199531e+03
1.199536e+03
1.199538e+03
1.199539e+03
1.199538e+03
1.199536e+03
1.199531e+03
1.199525e+03
1.199514e+03
1.199500e+03
1.199490e+03
1.199483e+03
1.199479e+03
1.199478e+03
1.199482e+03
1.199489e+03
1.199500e+03
1.199517e+03
1.199529e+03
1.199535e+03
1.199539e+03
1.199541e+03
1.199542e+03
1.199541e+03
1.199539e+03
1.199535e+03
1.199529e+03
1.199517e+03
1.199500e+03
1.199489e+03
1.199482e+03
1.199478e+03
1.199535e+03
1.199537e+03
1.199538e+03
1.199538e+03
1.199539e+03
1.199539e+03
1.199539e+03
1.199539e+03
1.199539e+03
1.199538e+03
1.199538e+03
1.199539e+03
1.199539e+03
1.199539e+03
1.199539e+03
1.199539e+03
1.199539e+03
1.199539e+03
1.199541e+03
1.199540e+03
1.199539e+03
1.199539e+03
1.199539e+03
1.199539e+03
1.199539e+03
1.199539e+03
1.199539e+03
1.199542e+03
1.199541e+03
1.199540e+03
1.199540e+03
1.199539e+03
1.199539e+03
1.199539e+03
1.199539e+03
1.199539e+03
1.199543e+03
1.199541e+03
1.199540e+03
1.199540e+03
1.199539e+03
1.199539e+03
1.199539e+03
1.199539e+03
1.199539e+03
1.199542e+03
1.199541e+03
1.199540e+03
1.199540e+03
1.199539e+03
1.199539e+03
1.199539e+03
1.199539e+03
1.199539e+03
1.199541e+03
1.199540e+03
1.199539e+03
1.199539e+03
1.199539e+03
1.199539e+03
1.199539e+03
1.199539e+03
1.199539e+03
1.199538e+03
1.199538e+03
1.199539e+03
1.199539e+03
1.199539e+03
1.199539e+03
1.199539e+03
1.199539e+03
1.199539e+03
1.199535e+03
1.199537e+03
1.199538e+03
1.199538e+03
1.199539e+03
1.199539e+03
1.199539e+03
1.199539e+03
1.199539e+03

SCALARS phil float 1
LOOKUP_TABLE default
-1.384715e-01
-1.615285e-01
-1.615285e-01
-1.615285e-01
-1.384715e-01
-1.615285e-01
-1.615285e-01
-1.615285e-01
-1.615285e-01
-1.615285e-01
-1.615285e-01
-1.615285e-01
-1.615285e-01
-1.615285e-01
-1.615285e-01
-1.615285e-01
-1.615285e-01
-1.615285e-01
-1.615285e-01
-1.615285e-01
-1.615285e-01
-1.615285e-01
-1.615285e-01
-1.615285e-01
-1.615285e-01
-1.615285e-01
-1.615285e-01
-1.615285e-01
-1.615285e-01
-1.615285e-01
-1.615285e-01
-1.615285e-01
-1.615285e-01
-1.615285e-01
-1.615285e-01
-1.615285e-01
-1.615285e-01
-1.615285e-01
-1.615285e-01
-1.615285e-01
-1.615285e-01
-1.615285e-01
-1.615285e-01
-1.615285e-01
-1.615285e-01
-1.615285e-01
-1.615285e-01
-1.615285e-01
-1.615285e-01
-1.615285e-01
-1.615285e-01
-1.615285e-01
-1.615285e-01
-1.615285e-01
-1.615285e-01
-1.615285e-01
-1.615285e-01
-1.615285e-01
-1.615285e-01
-1.615285e-01
-1.615285e-01
-1.615285e-01
-1.615285e-01
-1.615285e-01
-1.615285e-01
-1.615285e-01
-1.615285e-01
-1.615285e-01
-1.384834e-01
-1.385462e-01
-1.388006e-01
-1.396463e-01
-1.415719e-01
-1.443237e-01
-1.467878e-01
-1.483140e-01
-1.490395e-01
-1.492469e-01
-1.490395e-01
-1.483140e-01
-1.467878e-01
-1.443237e-01
-1.415719e-01
-1.396463e-01
-1.388006e-01
-1.385462e-01
-1.384834e-01
-1.430842e-01
-1.476950e-01
-1.523050e-01
-1.569158e-01
-1.615166e-01
-1.614538e-01
-1.611994e-01
-1.603537e-01
-1.584281e-01
-1.556763e-01
-1.532122e-01
-1.516860e-01
-1.509605e-01
-1.507531e-01
-1.509605e-01
-1.516860e-01
-1.532122e-01
-1.556763e-01
-1.584281e-01
-1.603537e-01
-1.611994e-01
-1.614538e-01
-1.615166e-01
-1.430842e-01
-1.476950e-01
-1.523050e-01
-1.569158e-01
-1.615285e-01
-1.615285e-01
-1.615285e-01
-1.615285e-01
-1.615285e-01
-1.615285e-01
-1.615285e-01
-1.615285e-01
-1.615285e-01
-1.615285e-01
-1.615285e-01
-1.615285e-01
-1.615285e-01
-1.615285e-01
-1.615285e-01
-1.615285e-01
-1.615285e-01
-1.615285e-01
-1.615285e-01
-1.615285e-01
-1.615285e-01
-1.615285e-01
-1.615285e-01
-1.615285e-01
-1.615285e-01
-1.615285e-01
-1.615285e-01
-1.615285e-01
-1.615285e-01
-1.615285e-01
-1.615285e-01
-1.615285e-01
-1.615285e-01
-1.615285e-01
-1.615285e-01
-1.615285e-01
-1.615285e-01
-1.615285e-01
-1.615285e-01
-1.615285e-01
-1.615285e-01
-1.615285e-01
-1.615285e-01
-1.615285e-01
-1.615285e-01
-1.615285e-01
-1.615285e-01
-1.615285e-01
-1.615285e-01
-1.615285e-01
-1.615285e-01
-1.615285e-01
-1.615285e-01
-1.615285e-01
-1.615285e-01
-1.615285e-01
-1.615285e-01
-1.615285e-01
-1.615285e-01
-1.615285e-01
-1.615285e-01
-1.615285e-01
-1.615285e-01
-1.615285e-01
-1.615285e-01
-1.615285e-01
-1.615285e-01
-1.615285e-01
-1.615285e-01
-1.615285e-01
-1.615285e-01
-1.615285e-01
-1.615285e-01
-1.615285e-01
-1.615285e-01
-1.615285e-01
-1.615285e-01
-1.615285e-01
-1.615285e-01
-1.615285e-01
-1.615285e-01
-1.615285e-01
-1.615285e-01
-1.615285e-01
-1.615285e-01
-1.615285e-01
-1.615285e-01
-1.615285e-01
-1.615285e-01
-1.615285e-01
-1.615285e-01
-1.615285e-01
-1.615285e-01
-1.615285e-01
-1.615285e-01
-1.615285e-01
-1.615285e-01
-1.615285e-01
-1.615285e-01
-1.615285e-01
-1.615285e-01
-1.615285e-01
-1.615285e-01
-1.615285e-01
-1.615285e-01
-1.615285e-01
-1.615285e-01
-1.615285e-01
-1.615285e-01
-1.615285e-01
-1.615285e-01
-1.615285e-01
-1.615285e-01
-1.615285e-01
-1.615285e-01
-1.615285e-01
-1.615285e-01
-1.615285e-01
-1.615285e-01
-1.615285e-01
-1.615285e-01
-1.615285e-01
-1.615285e-01
-1.615285e-01
-1.615285e-01
-1.615285e-01
-1.615285e-01
-1.615285e-01
-1.615285e-01
-1.615285e-01
-1.615285e-01
-1.615285e-01
-1.615285e-01
-1.615285e-01
-1.615285e-01
-1.615285e-01
-1.615285e-01
-1.615285e-01
-1.615285e-01
-1.615285e-01
-1.615285e-01
-1.615285e-01
-1.615285e-01
-1.615285e-01
-1.615285e-01
-1.615285e-01
-1.615285e-01
-1.615285e-01
-1.615285e-01
-1.615285e-01
-1.615285e-01
-1.615285e-01
-1.615285e-01
-1.615285e-01
-1.615285e-01
-1.615285e-01
-1.615285e-01
-1.615285e-01
-1.615285e-01
-1.615285e-01
-1.615285e-01
-1.615285e-01
-1.615285e-01
-1.615285e-01
-1.615285e-01
-1.615285e-01
-1.615285e-01
-1.615285e-01
-1.615285e-01
-1.615285e-01
-1.615285e-01
-1.615285e-01
-1.615285e-01
-1.615285e-01
-1.615285e-01
-1.615285e-01
-1.615285e-01
-1.615285e-01
-1.615285e-01
-1.615285e-01
-1.615285e-01
-1.615285e-01
-1.615285e-01
-1.615285e-01
-1.615285e-01
-1.615285e-01
-1.615285e-01
-1.615285e-01
-1.615285e-01
-1.615285e-01
-1.615285e-01
-1.615285e-01
-1.615285e-01
-1.615285e-01
-1.615285e-01
-1.615285e-01
-1.615285e-01
-1.615285e-01
-1.615285e-01
-1.615285e-01
-1.615285e-01
-1.615285e-01
-1.615285e-01
-1.615285e-01
-1.615285e-01
-1.615285e-01
-1.615285e-01
-1.615285e-01
-1.615285e-01
-1.430928e-01
-1.476981e-01
-1.523019e-01
-1.569072e-01
-1.431385e-01
-1.477148e-01
-1.522852e-01
-1.568615e-01
-1.433174e-01
-1.477788e-01
-1.522212e-01
-1.566826e-01
-1.438611e-01
-1.479655e-01
-1.520345e-01
-1.561389e-01
-1.450013e-01
-1.483427e-01
-1.516573e-01
-1.549987e-01
-1.465728e-01
-1.488545e-01
-1.511455e-01
-1.534272e-01
-1.480081e-01
-1.493258e-01
-1.506742e-01
-1.519919e-01
-1.489366e-01
-1.496369e-01
-1.503631e-01
-1.510634e-01
-1.493916e-01
-1.497917e-01
-1.502083e-01
-1.506084e-01
-1.495226e-01
-1.498365e-01
-1.501635e-01
-1.504774e-01
-1.493916e-01
-1.497917e-01
-1.502083e-01
-1.506084e-01
-1.489366e-01
-1.496369e-01
-1.503631e-01
-1.510634e-01
-1.480081e-01
-1.493258e-01
-1.506742e-01
-1.519919e-01
-1.465728e-01
-1.488545e-01
-1.511455e-01
-1.534272e-01
-1.450013e-01
-1.483427e-01
-1.516573e-01
-1.549987e-01
-1.438611e-01
-1.479655e-01
-1.520345e-01
-1.561389e-01
-1.433174e-01
-1.477788e-01
-1.522212e-01
-1.566826e-01
-1.431385e-01
-1.477148e-01
-1.522852e-01
-1.568615e-01
-1.430928e-01
-1.476981e-01
-1.523019e-01
-1.569072e-01
-1.615285e-01
-1.615285e-01
-1.615285e-01
-1.615285e-01
-1.615285e-01
-1.615285e-01
-1.615285e-01
-1.615285e-01
-1.615285e-01
-1.615285e-01
-1.615285e-01
-1.615285e-01
-1.615285e-01
-1.615285e-01
-1.615285e-01
-1.615285e-01
-1.615285e-01
-1.615285e-01
-1.615285e-01
-1.615285e-01
-1.615285e-01
-1.615285e-01
-1.615285e-01
-1.615285e-01
-1.615285e-01
-1.615285e-01
-1.615285e-01
-1.615285e-01
-1.615285e-01
-1.615285e-01
-1.615285e-01
-1.615285e-01
-1.615285e-01
-1.615285e-01
-1.615285e-01
-1.615285e-01
-1.615285e-01
-1.615285e-01
-1.615285e-01
-1.615285e-01
-1.615285e-01
-1.615285e-01
-1.615285e-01
-1.615285e-01
-1.615285e-01
-1.615285e-01
-1.615285e-01
-1.615285e-01
-1.615285e-01
-1.615285e-01
-1.615285e-01
-1.615285e-01
-1.615285e-01
-1.615285e-01
-1.615285e-01
-1.615285e-01
-1.615285e-01
-1.615285e-01
-1.615285e-01
-1.615285e-01
-1.615285e-01
-1.615285e-01
-1.615285e-01
-1.615285e-01
-1.615285e-01
-1.615285e-01
-1.615285e-01
-1.615285e-01
-1.615285e-01
-1.615285e-01
-1.615285e-01
-1.615285e-01
-1.615285e-01
-1.615285e-01
-1.615285e-01
-1.615285e-01
-1.615285e-01
-1.615285e-01
-1.615285e-01
-1.615285e-01
-1.615285e-01
-1.615285e-01
-1.615285e-01
-1.615285e-01
-1.615285e-01
-1.615285e-01
-1.615285e-01
-1.615285e-01
-1.615285e-01
-1.615285e-01
-1.615285e-01
-1.615285e-01
-1.615285e-01
-1.615285e-01
-1.615285e-01
-1.615285e-01
-1.615285e-01
-1.615285e-01
-1.615285e-01
-1.615285e-01
-1.615285e-01
-1.615285e-01
-1.615285e-01
-1.615285e-01
-1.615285e-01
-1.615285e-01
-1.615285e-01
-1.615285e-01
-1.615285e-01
-1.615285e-01
-1.615285e-01
-1.615285e-01
-1.615285e-01
-1.615285e-01
-1.615285e-01
-1.615285e-01
-1.615285e-01
-1.615285e-01
-1.615285e-01
-1.615285e-01
-1.615285e-01
-1.615285e-01
-1.615285e-01
-1.615285e-01
-1.615285e-01
-1.615285e-01
-1.615285e-01
-1.615285e-01
-1.615285e-01
-1.615285e-01
-1.615285e-01
-1.615285e-01
-1.615285e-01
-1.615285e-01
-1.615285e-01
-1.615285e-01
-1.615285e-01
-1.615285e-01
-1.615285e-01
-1.615285e-01
-1.615285e-01
-1.615285e-01
-1.615285e-01
-1.615285e-01
-1.615285e-01
-1.615285e-01
-1.615285e-01
-1.615285e-01
-1.615285e-01
-1.615285e-01
-1.615285e-01
-1.615285e-01
-1.615285e-01
-1.615285e-01
-1.615285e-01
-1.615285e-01
-1.615285e-01

SCALARS phis1 float 1
LOOKUP_TABLE default
-1.384715e-01
0.000000e+00
-1.492469e-01
-1.492469e-01
-1.384715e-01
0.000000e+00
-1.492469e-01
-1.492469e-01
0.000000e+00
0.000000e+00
-1.492469e-01
-1.492469e-01
-1.492469e-01
-1.492469e-01
-1.492469e-01
-1.492469e-01
-1.107859e-01
-8.309625e-02
-5.540237e-02
-2.770095e-02
0.000000e+00
0.000000e+00
0.000000e+00
0.000000e+00
-1.492469e-01
-1.492469e-01
-1.492469e-01
-1.492469e-01
-1.492469e-01
-1.492469e-01
-1.492469e-01
-1.492469e-01
-1.492469e-01
-1.492469e-01
-1.492469e-01
-1.492469e-01
-1.492469e-01
-1.492469e-01
-1.492469e-01
-1.492469e-01
-1.492469e-01
-1.492469e-01
-1.492469e-01
-1.492469e-01
-1.492469e-01
-1.492469e-01
-1.492469e-01
-1.492469e-01
-1.492469e-01
-1.492469e-01
-1.492469e-01
0.000000e+00
0.000000e+00
0.000000e+00
0.000000e+00
-1.032998e-01
-1.249012e-01
-1.380848e-01
-1.431936e-01
-1.447282e-01
-1.431936e-01
-1.380848e-01
-1.249012e-01
-1.032998e-01
-2.770095e-02
-5.540237e-02
-8.309625e-02
-1.107859e-01
-1.384834e-01
-1.385462e-01
-1.388006e-01
-1.396463e-01
-1.415719e-01
-1.443237e-01
-1.467878e-01
-1.483140e-01
-1.490395e-01
-1.492469e-01
-1.490395e-01
-1.483140e-01
-1.467878e-01
-1.443237e-01
-1.415719e-01
-1.396463e-01
-1.388006e-01
-1.385462e-01
-1.384834e-01
-1.492469e-01
-1.492469e-01
-1.492469e-01
-1.492469e-01
-1.492469e-01
-1.492469e-01
-1.492469e-01
-1.492469e-01
-1.492469e-01
-1.492469e-01
-1.492469e-01
-1.492469e-01
-1.492469e-01
-1.492469e-01
-1.492469e-01
-1.492469e-01
-1.492469e-01
-1.492469e-01
-1.492469e-01
-1.492469e-01
-1.492469e-01
-1.492469e-01
-1.492469e-01
-1.492469e-01
-1.492469e-01
-1.492469e-01
-1.492469e-01
-1.492469e-01
-1.492469e-01
-1.492469e-01
-1.492469e-01
-1.492469e-01
-1.492469e-01
-1.492469e-01
-1.492469e-01
-1.492469e-01
-1.492469e-01
-1.492469e-01
-1.492469e-01
-1.492469e-01
-1.492469e-01
-1.492469e-01
-1.492469e-01
-1.492469e-01
-1.492469e-01
-1.492469e-01
-1.492469e-01