# vtk DataFile Version 2.0
step 0 time 0.000000e+00 normalized time 0.000000e+00, generated by simple.py
ASCII
DATASET UNSTRUCTURED_GRID

POINTS 726 float
-1.000000e-04 0.000000e+00 0.000000e+00
2.500000e-04 0.000000e+00 0.000000e+00
3.500000e-04 0.000000e+00 0.000000e+00
7.000000e-04 0.000000e+00 0.000000e+00
-1.000000e-04 5.000000e-04 0.000000e+00
0.000000e+00 5.000000e-04 0.000000e+00
6.000000e-04 5.000000e-04 0.000000e+00
7.000000e-04 5.000000e-04 0.000000e+00
-1.000000e-04 1.500000e-03 0.000000e+00
0.000000e+00 1.500000e-03 0.000000e+00
6.000000e-04 1.500000e-03 0.000000e+00
7.000000e-04 1.500000e-03 0.000000e+00
-1.000000e-04 2.000000e-03 0.000000e+00
2.500000e-04 2.000000e-03 0.000000e+00
3.500000e-04 2.000000e-03 0.000000e+00
7.000000e-04 2.000000e-03 0.000000e+00
-5.000000e-05 0.000000e+00 0.000000e+00
8.131516e-20 0.000000e+00 0.000000e+00
5.000000e-05 0.000000e+00 0.000000e+00
1.000000e-04 0.000000e+00 0.000000e+00
1.500000e-04 0.000000e+00 0.000000e+00
2.000000e-04 0.000000e+00 0.000000e+00
3.000000e-04 0.000000e+00 0.000000e+00
4.000000e-04 0.000000e+00 0.000000e+00
4.500000e-04 0.000000e+00 0.000000e+00
5.000000e-04 0.000000e+00 0.000000e+00
5.500000e-04 0.000000e+00 0.000000e+00
6.000000e-04 0.000000e+00 0.000000e+00
6.500000e-04 0.000000e+00 0.000000e+00
-5.000000e-05 5.000000e-04 0.000000e+00
6.500000e-04 5.000000e-04 0.000000e+00
-5.000000e-05 1.500000e-03 0.000000e+00
6.500000e-04 1.500000e-03 0.000000e+00
-5.000000e-05 2.000000e-03 0.000000e+00
8.131516e-20 2.000000e-03 0.000000e+00
5.000000e-05 2.000000e-03 0.000000e+00
1.000000e-04 2.000000e-03 0.000000e+00
1.500000e-04 2.000000e-03 0.000000e+00
2.000000e-04 2.000000e-03 0.000000e+00
3.000000e-04 2.000000e-03 0.000000e+00
4.000000e-04 2.000000e-03 0.000000e+00
4.500000e-04 2.000000e-03 0.000000e+00
5.000000e-04 2.000000e-03 0.000000e+00
5.500000e-04 2.000000e-03 0.000000e+00
6.000000e-04 2.000000e-03 0.000000e+00
6.500000e-04 2.000000e-03 0.000000e+00
-1.000000e-04 5.000000e-05 0.000000e+00
-1.000000e-04 1.000000e-04 0.000000e+00
-1.000000e-04 1.500000e-04 0.000000e+00
-1.000000e-04 2.000000e-04 0.000000e+00
-1.000000e-04 2.500000e-04 0.000000e+00
-1.000000e-04 3.000000e-04 0.000000e+00
-1.000000e-04 3.500000e-04 0.000000e+00
-1.000000e-04 4.000000e-04 0.000000e+00
-1.000000e-04 4.500000e-04 0.000000e+00
7.000000e-04 5.000000e-05 0.000000e+00
7.000000e-04 1.000000e-04 0.000000e+00
7.000000e-04 1.500000e-04 0.000000e+00
7.000000e-04 2.000000e-04 0.000000e+00
7.000000e-04 2.500000e-04 0.000000e+00
7.000000e-04 3.000000e-04 0.000000e+00
7.000000e-04 3.500000e-04 0.000000e+00
7.000000e-04 4.000000e-04 0.000000e+00
7.000000e-04 4.500000e-04 0.000000e+00
0.000000e+00 5.500000e-04 0.000000e+00
0.000000e+00 6.000000e-04 0.000000e+00
0.000000e+00 6.500000e-04 0.000000e+00
0.000000e+00 7.000000e-04 0.000000e+00
0.000000e+00 7.500000e-04 0.000000e+00
0.000000e+00 8.000000e-04 0.000000e+00
0.000000e+00 8.500000e-04 0.000000e+00
0.000000e+00 9.000000e-04 0.000000e+00
0.000000e+00 9.500000e-04 0.000000e+00
0.000000e+00 1.000000e-03 0.000000e+00
0.000000e+00 1.050000e-03 0.000000e+00
0.000000e+00 1.100000e-03 0.000000e+00
0.000000e+00 1.150000e-03 0.000000e+00
0.000000e+00 1.200000e-03 0.000000e+00
0.000000e+00 1.250000e-03 0.000000e+00
0.000000e+00 1.300000e-03 0.000000e+00
0.000000e+00 1.350000e-03 0.000000e+00
0.000000e+00 1.400000e-03 0.000000e+00
0.000000e+00 1.450000e-03 0.000000e+00
6.000000e-04 5.500000e-04 0.000000e+00
6.000000e-04 6.000000e-04 0.000000e+00
6.000000e-04 6.500000e-04 0.000000e+00
6.000000e-04 7.000000e-04 0.000000e+00
6.000000e-04 7.500000e-04 0.000000e+00
6.000000e-04 8.000000e-04 0.000000e+00
6.000000e-04 8.500000e-04 0.000000e+00
6.000000e-04 9.000000e-04 0.000000e+00
6.000000e-04 9.500000e-04 0.000000e+00
6.000000e-04 1.000000e-03 0.000000e+00
6.000000e-04 1.050000e-03 0.000000e+00
6.000000e-04 1.100000e-03 0.000000e+00
6.000000e-04 1.150000e-03 0.000000e+00
6.000000e-04 1.200000e-03 0.000000e+00
6.000000e-04 1.250000e-03 0.000000e+00
6.000000e-04 1.300000e-03 0.000000e+00
6.000000e-04 1.350000e-03 0.000000e+00
6.000000e-04 1.400000e-03 0.000000e+00
6.000000e-04 1.450000e-03 0.000000e+00
-1.000000e-04 1.550000e-03 0.000000e+00
-1.000000e-04 1.600000e-03 0.000000e+00
-1.000000e-04 1.650000e-03 0.000000e+00
-1.000000e-04 1.700000e-03 0.000000e+00
-1.000000e-04 1.750000e-03 0.000000e+00
-1.000000e-04 1.800000e-03 0.000000e+00
-1.000000e-04 1.850000e-03 0.000000e+00
-1.000000e-04 1.900000e-03 0.000000e+00
-1.000000e-04 1.950000e-03 0.000000e+00
7.000000e-04 1.550000e-03 0.000000e+00
7.000000e-04 1.600000e-03 0.000000e+00
7.000000e-04 1.650000e-03 0.000000e+00
7.000000e-04 1.700000e-03 0.000000e+00
7.000000e-04 1.750000e-03 0.000000e+00
7.000000e-04 1.800000e-03 0.000000e+00
7.000000e-04 1.850000e-03 0.000000e+00
7.000000e-04 1.900000e-03 0.000000e+00
7.000000e-04 1.950000e-03 0.000000e+00
2.500000e-04 5.000000e-05 0.000000e+00
2.500000e-04 1.000000e-04 0.000000e+00
2.500000e-04 1.500000e-04 0.000000e+00
2.500000e-04 2.000000e-04 0.000000e+00
2.500000e-04 2.500000e-04 0.000000e+00
2.500000e-04 3.000000e-04 0.000000e+00
2.500000e-04 3.500000e-04 0.000000e+00
2.500000e-04 4.000000e-04 0.000000e+00
2.500000e-04 4.500000e-04 0.000000e+00
2.500000e-04 5.000000e-04 0.000000e+00
2.500000e-04 5.500000e-04 0.000000e+00
2.500000e-04 6.000000e-04 0.000000e+00
2.500000e-04 6.500000e-04 0.000000e+00
2.500000e-04 7.000000e-04 0.000000e+00
2.500000e-04 7.500000e-04 0.000000e+00
2.500000e-04 8.000000e-04 0.000000e+00
2.500000e-04 8.500000e-04 0.000000e+00
2.500000e-04 9.000000e-04 0.000000e+00
2.500000e-04 9.500000e-04 0.000000e+00
2.500000e-04 1.000000e-03 0.000000e+00
2.500000e-04 1.050000e-03 0.000000e+00
2.500000e-04 1.100000e-03 0.000000e+00
2.500000e-04 1.150000e-03 0.000000e+00
2.500000e-04 1.200000e-03 0.000000e+00
2.500000e-04 1.250000e-03 0.000000e+00
2.500000e-04 1.300000e-03 0.000000e+00
2.500000e-04 1.350000e-03 0.000000e+00
2.500000e-04 1.400000e-03 0.000000e+00
2.500000e-04 1.450000e-03 0.000000e+00
2.500000e-04 1.500000e-03 0.000000e+00
2.500000e-04 1.550000e-03 0.000000e+00
2.500000e-04 1.600000e-03 0.000000e+00
2.500000e-04 1.650000e-03 0.000000e+00
2.500000e-04 1.700000e-03 0.000000e+00
2.500000e-04 1.750000e-03 0.000000e+00
2.500000e-04 1.800000e-03 0.000000e+00
2.500000e-04 1.850000e-03 0.000000e+00
2.500000e-04 1.900000e-03 0.000000e+00
2.500000e-04 1.950000e-03 0.000000e+00
3.500000e-04 5.000000e-05 0.000000e+00
3.500000e-04 1.000000e-04 0.000000e+00
3.500000e-04 1.500000e-04 0.000000e+00
3.500000e-04 2.000000e-04 0.000000e+00
3.500000e-04 2.500000e-04 0.000000e+00
3.500000e-04 3.000000e-04 0.000000e+00
3.500000e-04 3.500000e-04 0.000000e+00
3.500000e-04 4.000000e-04 0.000000e+00
3.500000e-04 4.500000e-04 0.000000e+00
3.500000e-04 5.000000e-04 0.000000e+00
3.500000e-04 5.500000e-04 0.000000e+00
3.500000e-04 6.000000e-04 0.000000e+00
3.500000e-04 6.500000e-04 0.000000e+00
3.500000e-04 7.000000e-04 0.000000e+00
3.500000e-04 7.500000e-04 0.000000e+00
3.500000e-04 8.000000e-04 0.000000e+00
3.500000e-04 8.500000e-04 0.000000e+00
3.500000e-04 9.000000e-04 0.000000e+00
3.500000e-04 9.500000e-04 0.000000e+00
3.500000e-04 1.000000e-03 0.000000e+00
3.500000e-04 1.050000e-03 0.000000e+00
3.500000e-04 1.100000e-03 0.000000e+00
3.500000e-04 1.150000e-03 0.000000e+00
3.500000e-04 1.200000e-03 0.000000e+00
3.500000e-04 1.250000e-03 0.000000e+00
3.500000e-04 1.300000e-03 0.000000e+00
3.500000e-04 1.350000e-03 0.000000e+00
3.500000e-04 1.400000e-03 0.000000e+00
3.500000e-04 1.450000e-03 0.000000e+00
3.500000e-04 1.500000e-03 0.000000e+00
3.500000e-04 1.550000e-03 0.000000e+00
3.500000e-04 1.600000e-03 0.000000e+00
3.500000e-04 1.650000e-03 0.000000e+00
3.500000e-04 1.700000e-03 0.000000e+00
3.500000e-04 1.750000e-03 0.000000e+00
3.500000e-04 1.800000e-03 0.000000e+00
3.500000e-04 1.850000e-03 0.000000e+00
3.500000e-04 1.900000e-03 0.000000e+00
3.500000e-04 1.950000e-03 0.000000e+00
-5.518201e-05 1.674142e-03 0.000000e+00
-5.925316e-05 1.824079e-03 0.000000e+00
2.066987e-04 3.250000e-04 0.000000e+00
2.066987e-04 1.750000e-04 0.000000e+00
-5.356355e-05 2.753535e-04 0.000000e+00
2.039138e-04 1.728296e-03 0.000000e+00
7.500000e-05 1.956699e-03 0.000000e+00
8.049111e-05 4.758322e-05 0.000000e+00
2.033978e-04 1.579269e-03 0.000000e+00
2.066987e-04 1.825000e-03 0.000000e+00
-5.488066e-05 1.750000e-04 0.000000e+00
2.066987e-04 4.250000e-04 0.000000e+00
2.066987e-04 1.225000e-03 0.000000e+00
4.330127e-05 1.425000e-03 0.000000e+00
2.066987e-04 9.250000e-04 0.000000e+00
4.330127e-05 6.750000e-04 0.000000e+00
4.330127e-05 8.250000e-04 0.000000e+00
4.330127e-05 5.250000e-04 0.000000e+00
2.066987e-04 1.025000e-03 0.000000e+00
-5.220418e-05 3.746627e-04 0.000000e+00
2.066987e-04 1.125000e-03 0.000000e+00
2.066987e-04 1.325000e-03 0.000000e+00
4.553418e-05 4.750000e-04 0.000000e+00
2.097013e-04 1.474330e-03 0.000000e+00
4.330127e-05 1.175000e-03 0.000000e+00
2.087605e-04 6.254752e-04 0.000000e+00
4.330127e-05 1.275000e-03 0.000000e+00
2.099679e-04 7.763306e-04 0.000000e+00
4.330127e-05 1.075000e-03 0.000000e+00
4.330127e-05 9.750000e-04 0.000000e+00
2.066987e-04 5.250000e-04 0.000000e+00
8.697469e-05 5.000000e-04 0.000000e+00
8.666457e-05 5.500000e-04 0.000000e+00
8.703672e-05 4.500000e-04 0.000000e+00
4.597869e-05 4.250000e-04 0.000000e+00
8.712114e-05 4.000000e-04 0.000000e+00
4.387515e-05 3.750714e-04 0.000000e+00
8.678462e-05 3.500119e-04 0.000000e+00
4.165522e-05 3.254387e-04 0.000000e+00
8.635855e-05 3.000751e-04 0.000000e+00
4.117301e-05 2.754391e-04 0.000000e+00
8.620716e-05 2.500857e-04 0.000000e+00
4.091156e-05 2.250875e-04 0.000000e+00
8.613836e-05 2.000289e-04 0.000000e+00
4.085652e-05 1.750194e-04 0.000000e+00
8.611772e-05 1.500080e-04 0.000000e+00
2.085251e-04 1.924703e-03 0.000000e+00
[...]
POINT_DATA 726

SCALARS node_groups int 1
LOOKUP_TABLE default
0
0
0
0
0
0
0
0
0
0
0
0
0
0
0
0
0
0
0
0
0
0
0
0
0
0
0
0
0
0
0
0
0
0
0
0
0
0
0
0
0
0
0
0
0
0
0
0
0
0
0
0
0
0
0
0
0
0
0
0
0
0
0
0
0
0
0
0
0
0
0
0
0
0
0
0
0
0
0
0
0
0
0
0
0
0
0
0
0
0
0
0
0
0
0
0
0
0
0
0
0
0
0
0
0
0
0
0
0
0
0
0
0
0
0
0
0
0
0
0
0
0
0
0
0
0
0
0
0
0
0
0
0
0
0
0
0
0
0
0
0
0
0
0
0
0
0
0
0
0
0
0
0
0
0
0
0
0
0
0
0
0
0
0
0
0
0
0
0
0
0
0
0
0
0
0
0
0
0
0
0
0
0
0
0
0
0
0
0
0
0
0
0
0
0
0
0
0
0
0
0
0
0
0
0
0
0
0
0
0
0
0
0
0
0
0
0
0
0
0
0
0
0
0
0
0
0
0
0
0
0
0
0
0
0
0
0
0
0
0
0
0
0
0
0
0
0
0
0
0
0
0
0
0
0
0
0
0
0
0
0
0
0
0
0
0
0
0
0
0
0
0
0
0
0
0
0
0
0
0
0
0
0
0
0
0
0
0
0
0
0
0
0
0
0
0
0
0
0
0
0
0
0
0
0
0
0
0
0
0
0
0
0
0
0
0
0
0
0
0
0
0
0
0
0
0
0
0
0
0
0
0
0
0
0
0
0
0
0
0
0
0
0
0
0
0
0
0
0
0
0
0
0
0
0
0
0
0
0
0
0
0
0
0
0
0
0
0
0
0
0
0
0
0
0
0
0
0
0
0
0
0
0
0
0
0
0
0
0
0
0
0
0
0
0
0
0
0
0
0
0
0
0
0
0
0
0
0
0
0
0
0
0
0
0
0
0
0
0
0
0
0
0
0
0
0
0
0
0
0
0
0
0
0
0
0
0
0
0
0
0
0
0
0
0
0
0
0
0
0
0
0
0
0
0
0
0
0
0
0
0
0
0
0
0
0
0
0
0
0
0
0
0
0
0
0
0
0
0
0
0
0
0
0
0
0
0
0
0
0
0
0
0
0
0
0
0
0
0
0
0
0
0
0
0
0
0
0
0
0
0
0
0
0
0
0
0
0
0
0
0
0
0
0
0
0
0
0
0
0
0
0
0
0
0
0
0
0
0
0
0
0
0
0
0
0
0
0
0
0
0
0
0
0
0
0
0
0
0
0
0
0
0
0
0
0
0
0
0
0
0
0
0
0
0
0
0
0
0
0
0
0
0
0
0
0
0
0
0
0
0
0
0
0
0
0
0
0
0
0
0
0
0
0
0
0
0
0
0
0
0
0
0
0
0
0
0
0
0
0
0
0
0
0
0
0
0
0
0
0
0
0
0
0
0
0
0
0
0
0
0
0
0
0
0
0
0
0
0
0
0
0
0
0
0
0
0
0
0
0
0
0
0
0
0
0
0
0
0
0
0
0
0
0
0
0
0
0
0
0
0
0
0
0
0
0
0
0
0
0
0
0
0
0
0
0
0
0
0
0
0
0
0
0
0
0
0
0
0
0
0
0
0
0
0
0
0
0
0
0
0
0
0
0
0
0

SCALARS T float 1
LOOKUP_TABLE default
-4.179227e-01
-5.368728e-01
-5.926548e-01
-6.946411e-01
0.000000e+00
0.000000e+00
-1.013678e+00
-1.071921e+00
0.000000e+00
0.000000e+00
-1.014734e+00
-1.073156e+00
-4.192138e-01
-5.389292e-01
-5.955926e-01
-6.964640e-01
-4.207013e-01
-4.293539e-01
-4.431810e-01
-4.615175e-01
-4.838858e-01
-5.092866e-01
-5.655771e-01
-6.160771e-01
-6.378464e-01
-6.570207e-01
-6.729154e-01
-6.848332e-01
-6.921816e-01
0.000000e+00
-1.058484e+00
0.000000e+00
-1.060349e+00
-4.219692e-01
-4.306637e-01
-4.444751e-01
-4.629693e-01
-4.854911e-01
-5.110876e-01
-5.681557e-01
-6.185088e-01
-6.400416e-01
-6.591453e-01
-6.748991e-01
-6.866851e-01
-6.941102e-01
-4.151090e-01
-4.060757e-01
-3.908896e-01
-3.686761e-01
-3.382595e-01
-2.980640e-01
-2.459081e-01
-1.791577e-01
-9.646244e-02
-6.970852e-01
-7.048088e-01
-7.179008e-01
-7.370512e-01
-7.631440e-01
-7.976387e-01
-8.425081e-01
-9.003758e-01
-9.751992e-01
0.000000e+00
0.000000e+00
0.000000e+00
0.000000e+00
0.000000e+00
0.000000e+00
0.000000e+00
0.000000e+00
0.000000e+00
0.000000e+00
0.000000e+00
0.000000e+00
0.000000e+00
0.000000e+00
0.000000e+00
0.000000e+00
0.000000e+00
0.000000e+00
0.000000e+00
-1.079372e+00
-1.121189e+00
-1.151369e+00
-1.174032e+00
-1.191217e+00
-1.204138e+00
-1.213569e+00
-1.220010e+00
-1.223780e+00
-1.225054e+00
-1.223890e+00
-1.220234e+00
-1.213922e+00
-1.204616e+00
-1.191797e+00
-1.174716e+00
-1.152246e+00
-1.122070e+00
-1.080934e+00
-9.642928e-02
-1.799177e-01
-2.467480e-01
-2.990542e-01
-3.394178e-01
-3.696176e-01
-3.922224e-01
-4.074879e-01
-4.164112e-01
-9.764292e-01
-9.015474e-01
-8.437880e-01
-7.990945e-01
-7.646381e-01
-7.388438e-01
-7.195285e-01
-7.064829e-01
-6.988584e-01
-5.363076e-01
-5.345154e-01
-5.316503e-01
-5.277051e-01
-5.227075e-01
-5.169639e-01
-5.105392e-01
-5.040917e-01
-4.982325e-01
-4.936145e-01
-4.908786e-01
-4.899953e-01
-4.906788e-01
-4.924933e-01
-4.948276e-01
-4.972301e-01
-4.994164e-01
-5.011173e-01
-5.022086e-01
-5.026030e-01
-5.022732e-01
-5.012498e-01
-4.996177e-01
-4.975183e-01
-4.951672e-01
-4.928968e-01
-4.911970e-01
-4.905719e-01
-4.914774e-01
-4.944062e-01
-4.989723e-01
-5.052477e-01
-5.115385e-01
-5.181730e-01
-5.241717e-01
-5.292376e-01
-5.333597e-01
-5.364279e-01
-5.382624e-01
-5.928604e-01
-5.937773e-01
-5.958351e-01
-5.989243e-01
-6.031603e-01
-6.086925e-01
-6.154071e-01
-6.235081e-01
-6.327205e-01
-6.427074e-01
-6.530175e-01
-6.630385e-01
-6.724487e-01
-6.809505e-01
-6.882403e-01
-6.943052e-01
-6.991063e-01
-7.025268e-01
-7.045868e-01
-7.053007e-01
-7.047148e-01
-7.027244e-01
-6.993442e-01
-6.946769e-01
-6.887360e-01
-6.814789e-01
-6.730660e-01
-6.637600e-01
-6.537659e-01
-6.436385e-01
-6.337296e-01
-6.246849e-01
-6.166988e-01
-6.099154e-01
-6.045995e-01
-6.005309e-01
-5.976942e-01
-5.960941e-01
-5.956018e-01
-2.788193e-01
-3.841701e-01
-4.705408e-01
-5.005551e-01
-3.238643e-01
-4.819144e-01
-4.515707e-01
-4.518918e-01
-4.415450e-01
-5.020269e-01
-3.838178e-01
-4.440215e-01
-4.111968e-01
-9.777919e-02
-4.143869e-01
-8.850390e-02
-8.661717e-02
-1.124907e-01
-4.149349e-01
-2.221822e-01
-4.135925e-01
-4.101674e-01
-1.644395e-01
-4.270958e-01
-8.666389e-02
-4.149245e-01
-8.734507e-02
-4.173893e-01
-8.671737e-02
-8.674664e-02
-4.216925e-01
-2.228291e-01
-1.968310e-01
-2.614180e-01
-2.286005e-01
-3.039811e-01
-2.817707e-01
-3.422363e-01
-3.246218e-01
-3.743774e-01
-3.602371e-01
-4.006484e-01
-3.883002e-01
-4.213233e-01
-4.095661e-01
-4.368290e-01
-5.133934e-01
-1.000501e-01
-1.601060e-01
-1.975405e-01
-2.486224e-01
-2.361999e-01
-2.720779e-01
-3.166655e-01
-3.303979e-01
-3.703548e-01
-3.770885e-01
-4.226022e-01
-5.121431e-01
-4.241736e-01
-3.472342e-01
-3.862150e-01
-4.147735e-01
-4.180015e-01
-4.253804e-01
-3.685793e-01
-4.384619e-01
-3.126678e-01
-3.702127e-01
-1.025060e-01
-3.643463e-01
-4.448899e-01
-4.437050e-01
-4.215793e-01
-4.141080e-01
-4.424404e-01
-4.645039e-01
-4.244524e-01
-4.520287e-01
-4.219021e-01
-3.724709e-01
-3.767590e-01
-4.045206e-01
-3.549802e-01
-2.012788e-01
-4.198558e-01
-4.060369e-01
-4.115094e-01
-4.478379e-01
-4.636610e-01
-4.705559e-01
-2.397616e-01
-4.032361e-01
-3.820182e-01
-4.662077e-01
-3.272370e-01
-3.538138e-01
-3.582717e-01
-3.160103e-01
-2.792385e-01
-4.751024e-01
-2.897237e-01
-2.745796e-01
-1.839816e-01
-2.636493e-01
-1.773130e-01
-2.605049e-01
-1.744970e-01
-2.580169e-01
-1.731684e-01
-2.565833e-01
-3.382416e-01
-1.726218e-01
-2.581469e-01
-1.728594e-01
-2.579085e-01
-1.729583e-01
-2.592196e-01
-3.389781e-01
-1.732603e-01
-2.594865e-01
-1.733605e-01
-2.595085e-01
-1.733245e-01
-2.602279e-01
-1.733481e-01
-2.599083e-01
-1.732382e-01
-2.595904e-01
-1.732506e-01
-2.595210e-01
-1.736687e-01
-2.601132e-01
-1.749607e-01
-2.620498e-01
-1.779681e-01
-2.648537e-01
-1.840097e-01
-2.732075e-01
-3.437070e-01
-1.969487e-01
-2.881064e-01
-1.156716e-01
-9.139560e-02
-8.715418e-02
-1.575800e-01
-4.102691e-01
-8.666126e-02
-3.093987e-01
-4.124237e-01
-5.083994e-01
-8.652207e-02
-8.682138e-02
-4.316506e-01
-4.135688e-01
-4.351343e-01
-4.717195e-01
-8.675295e-02
-4.144751e-01
-5.070578e-01
-4.149064e-01
-4.938495e-01
-3.969493e-01
-8.658118e-02
-4.823854e-01
-4.924590e-01
-4.337073e-01
-9.742947e-02
-4.574308e-01
-9.126484e-02
-4.166734e-01
-8.675840e-02
-3.410093e-01
-4.198089e-01
-8.861165e-02
-4.530095e-01
-3.963132e-01
-2.989716e-01
-2.705220e-01
-4.132349e-01
-2.333658e-01
-4.953374e-01
-1.482283e-01
-3.085893e-01
-4.146127e-01
-4.943084e-01
-4.161945e-01
-3.396776e-01
-4.188191e-01
-3.380202e-01
-4.198867e-01
-4.155733e-01
-3.827383e-01
-4.031526e-01
-4.234729e-01
-3.510540e-01
-3.432384e-01
-4.419653e-01
-3.646849e-01
-4.577744e-01
-4.706145e-01
-4.804705e-01
-3.374131e-01
-3.376040e-01
-4.882839e-01
-3.374610e-01
-3.370177e-01
-3.363784e-01
-3.357372e-01
-3.354156e-01
-3.359189e-01
-4.153233e-01
-4.183178e-01
-3.373862e-01
-3.369042e-01
-3.384306e-01
-3.525526e-01
-4.894825e-01
-4.384455e-01
-3.824033e-01
-4.728725e-01
-4.356549e-01
-4.023933e-01
-4.452380e-01
-3.651154e-01
-4.714741e-01
-4.241955e-01
-2.195842e-01
-4.696603e-01
-4.388600e-01
-4.583410e-01
-3.207518e-01
-7.459712e-02
-4.179451e-01
-7.466333e-02
-1.509150e-01
-5.178398e-01
-1.549878e-01
-4.192423e-01
-5.161705e-01
-4.758814e-01
-3.149293e-01
-3.990481e-01
-5.716136e-01
-5.940995e-01
-5.997945e-01
-5.946841e-01
-5.650293e-01
-5.994501e-01
-6.072515e-01
-5.685959e-01
-5.684814e-01
-5.883966e-01
-5.897460e-01
-5.806663e-01
-5.741651e-01
-5.660246e-01
-5.646006e-01
-5.615069e-01
-5.644956e-01
-5.638168e-01
-5.705129e-01
-5.652313e-01
-5.666607e-01
-5.661645e-01
-6.003893e-01
-6.054491e-01
-5.657168e-01
-5.781534e-01
-5.656243e-01
-5.782842e-01
-6.013982e-01
-5.947674e-01
-5.862247e-01
-6.041800e-01
-5.897513e-01
-5.632365e-01
-5.655012e-01
-5.756358e-01
-5.654522e-01
-5.627917e-01
-5.600597e-01
-5.731436e-01
-5.532665e-01
-5.802483e-01
-6.247666e-01
-8.143279e-01
-6.664738e-01
-8.163316e-01
-6.299572e-01
-6.616895e-01
-6.680929e-01
-7.264115e-01
-7.241746e-01
-6.688360e-01
-6.412006e-01
-1.108772e+00
-1.007721e+00
-7.859687e-01
-1.116424e+00
-1.129311e+00
-1.071792e+00
-9.691678e-01
-6.964921e-01
-7.559971e-01
-9.173664e-01
-7.771744e-01
-1.131613e+00
-7.385581e-01
-7.682733e-01
-7.877136e-01
-6.167886e-01
-7.274290e-01
-6.956143e-01
-1.072492e+00
-8.773940e-01
-9.153551e-01
-8.358118e-01
-8.613239e-01
-7.962365e-01
-8.128080e-01
-7.614199e-01
-7.741710e-01
-7.327878e-01
-7.434015e-01
-7.096771e-01
-7.201173e-01
-6.917715e-01
-7.018543e-01
-6.783526e-01
-6.161199e-01
-9.620798e-01
-9.154841e-01
-8.838970e-01
-8.427858e-01
-8.562025e-01
-8.221520e-01
-7.854813e-01
-7.728332e-01
-7.392607e-01
-7.328261e-01
-6.922264e-01
-6.984214e-01
-7.581345e-01
-7.247634e-01
-7.003191e-01
-6.974633e-01
-6.882740e-01
-7.492293e-01
-9.255658e-01
-8.299145e-01
-6.942674e-01
-7.674981e-01
-6.643762e-01
-8.577861e-01
-6.547715e-01
-6.279997e-01
-7.434005e-01
-9.476686e-01
-8.804976e-01
-6.743024e-01
-6.754075e-01
-6.944059e-01
-7.431711e-01
-7.019002e-01
-7.802074e-01
-6.765694e-01
-6.576541e-01
-6.919716e-01
-6.680476e-01
-7.063407e-01
-6.945402e-01
-8.678461e-01
-7.077171e-01
-7.030429e-01
-8.493345e-01
-7.077921e-01
-7.255981e-01
-7.464477e-01
-6.893786e-01
-7.750723e-01
-7.523534e-01
-6.483402e-01
-7.144641e-01
-6.733811e-01
-7.776955e-01
-9.281757e-01
-8.579746e-01
-7.949631e-01
-7.755484e-01
-8.498605e-01
-8.183841e-01
-8.619520e-01
-9.487211e-01
-7.665996e-01
-8.431009e-01
-8.282975e-01
-8.541538e-01
-9.342683e-01
-9.406319e-01
-6.314881e-01
-1.131668e+00
-1.038544e+00
-1.035131e+00
-9.474866e-01
-9.434885e-01
-9.514000e-01
-1.030317e+00
-8.614970e-01
-9.428605e-01
-1.040076e+00
-1.038514e+00
-1.129160e+00
-1.034937e+00
-9.490469e-01
-9.433819e-01
-1.029127e+00
-9.374991e-01
-8.582749e-01
-1.020570e+00
-9.290612e-01
-1.008890e+00
-9.153910e-01
-9.931303e-01
-9.008218e-01
-8.302430e-01
-1.091099e+00
-9.184220e-01
-8.962751e-01
-8.037757e-01
-7.420034e-01
-6.828642e-01
-1.118391e+00
-1.052003e+00
-1.046728e+00
-1.124199e+00
-1.092996e+00
-6.516776e-01
-7.871428e-01
-6.780089e-01
-6.834554e-01
-7.734613e-01
-6.478198e-01
-7.131452e-01
-9.530736e-01
-6.589290e-01
-9.734505e-01
-7.988459e-01
-1.013577e+00
-1.124439e+00
-6.197845e-01
-6.229484e-01
-1.105554e+00
-7.938006e-01
-7.313029e-01
-9.196477e-01
-6.774235e-01
-7.992076e-01
-7.399252e-01
-7.016444e-01
-7.160469e-01
-6.708139e-01
-6.816599e-01
-9.258580e-01
-6.168180e-01
-6.316298e-01
-7.003943e-01
-6.395032e-01
-9.165616e-01
-7.755087e-01
-8.664718e-01
-8.603336e-01
-7.752772e-01
-1.026613e+00
-7.239816e-01
-7.086385e-01
-8.581757e-01
-6.370256e-01
-7.497163e-01
-8.638428e-01
-6.912291e-01
-8.423983e-01
-1.017972e+00
-1.003436e+00
-8.691991e-01
-7.352495e-01
-8.681159e-01
-7.121730e-01
-9.854723e-01
-6.404393e-01
-6.491160e-01
-8.009078e-01
-7.808930e-01
-7.787977e-01
-8.173925e-01
-7.837086e-01
-7.585428e-01
-6.478569e-01
-7.600421e-01
-6.605193e-01
-8.518554e-01
-6.362920e-01
-7.834859e-01
-6.500325e-01
-7.279306e-01
-7.372583e-01
-7.108361e-01
-6.745323e-01
-8.667149e-01
-6.922031e-01
-6.796671e-01
-6.630176e-01
-7.002354e-01
-7.805765e-01
-9.941717e-01
-6.127481e-01
-6.102445e-01
-6.946509e-01
-9.938982e-01
-9.930571e-01
-6.964395e-01
-6.795841e-01
-9.709849e-01
-6.336390e-01
-6.480462e-01
-7.136946e-01
-6.556899e-01
-8.487010e-01

SCALARS phil float 1
LOOKUP_TABLE default
-3.000000e-01
-3.000000e-01
-3.000000e-01
-3.000000e-01
-3.000000e-01
-3.000000e-01
-3.000000e-01
-3.000000e-01
-3.000000e-01
-3.000000e-01
-3.000000e-01
-3.000000e-01
-3.000000e-01
-3.000000e-01
-3.000000e-01
-3.000000e-01
-3.000000e-01
-3.000000e-01
-3.000000e-01
-3.000000e-01
-3.000000e-01
-3.000000e-01
-3.000000e-01
-3.000000e-01
-3.000000e-01
-3.000000e-01
-3.000000e-01
-3.000000e-01
-3.000000e-01
-3.000000e-01
-3.000000e-01
-3.000000e-01
-3.000000e-01
-3.000000e-01
-3.000000e-01
-3.000000e-01
-3.000000e-01
-3.000000e-01
-3.000000e-01
-3.000000e-01
-3.000000e-01
-3.000000e-01
-3.000000e-01
-3.000000e-01
-3.000000e-01
-3.000000e-01
-3.000000e-01
-3.000000e-01
-3.000000e-01
-3.000000e-01
-3.000000e-01
-3.000000e-01
-3.000000e-01
-3.000000e-01
-3.000000e-01
-3.000000e-01
-3.000000e-01
-3.000000e-01
-3.000000e-01
-3.000000e-01
-3.000000e-01
-3.000000e-01
-3.000000e-01
-3.000000e-01
-3.000000e-01
-3.000000e-01
-3.000000e-01
-3.000000e-01
-3.000000e-01
-3.000000e-01
-3.000000e-01
-3.000000e-01
-3.000000e-01
-3.000000e-01
-3.000000e-01
-3.000000e-01
-3.000000e-01
-3.000000e-01
-3.000000e-01
-3.000000e-01
-3.000000e-01
-3.000000e-01
-3.000000e-01
-3.000000e-01
-3.000000e-01
-3.000000e-01
-3.000000e-01
-3.000000e-01
-3.000000e-01
-3.000000e-01
-3.000000e-01
-3.000000e-01
-3.000000e-01
-3.000000e-01
-3.000000e-01
-3.000000e-01
-3.000000e-01
-3.000000e-01
-3.000000e-01
-3.000000e-01
-3.000000e-01
-3.000000e-01
-3.000000e-01
-3.000000e-01
-3.000000e-01
-3.000000e-01
-3.000000e-01
-3.000000e-01
-3.000000e-01
-3.000000e-01
-3.000000e-01
-3.000000e-01
-3.000000e-01
-3.000000e-01
-3.000000e-01
-3.000000e-01
-3.000000e-01
-3.000000e-01
-3.000000e-01
-3.000000e-01
-3.000000e-01
-3.000000e-01
-3.000000e-01
-3.000000e-01
-3.000000e-01
-3.000000e-01
-3.000000e-01
-3.000000e-01
-3.000000e-01
-3.000000e-01
-3.000000e-01
-3.000000e-01
-3.000000e-01
-3.000000e-01
-3.000000e-01
-3.000000e-01
-3.000000e-01
-3.000000e-01
-3.000000e-01
-3.000000e-01
-3.000000e-01
-3.000000e-01
-3.000000e-01
-3.000000e-01
-3.000000e-01
-3.000000e-01
-3.000000e-01
-3.000000e-01
-3.000000e-01
-3.000000e-01
-3.000000e-01
-3.000000e-01
-3.000000e-01
-3.000000e-01
-3.000000e-01
-3.000000e-01
-3.000000e-01
-3.000000e-01
-3.000000e-01
-3.000000e-01
-3.000000e-01
-3.000000e-01
-3.000000e-01
-3.000000e-01
-3.000000e-01
-3.000000e-01
-3.000000e-01
-3.000000e-01
-3.000000e-01
-3.000000e-01
-3.000000e-01
-3.000000e-01
-3.000000e-01
-3.000000e-01
-3.000000e-01
-3.000000e-01
-3.000000e-01
-3.000000e-01
-3.000000e-01
-3.000000e-01
-3.000000e-01
-3.000000e-01
-3.000000e-01
-3.000000e-01
-3.000000e-01
-3.000000e-01
-3.000000e-01
-3.000000e-01
-3.000000e-01
-3.000000e-01
-3.000000e-01
-3.000000e-01
-3.000000e-01
-3.000000e-01
-3.000000e-01
-3.000000e-01
-3.000000e-01
-3.000000e-01
-3.000000e-01
-3.000000e-01
-3.000000e-01
-3.000000e-01
-3.000000e-01
-3.000000e-01
-3.000000e-01
-3.000000e-01
-3.000000e-01
-3.000000e-01
-3.000000e-01
-3.000000e-01
-3.000000e-01
-3.000000e-01
-3.000000e-01
-3.000000e-01
-3.000000e-01
-3.000000e-01
-3.000000e-01
-3.000000e-01
-3.000000e-01
-3.000000e-01
-3.000000e-01
-3.000000e-01
-3.000000e-01
-3.000000e-01
-3.000000e-01
-3.000000e-01
-3.000000e-01
-3.000000e-01
-3.000000e-01
-3.000000e-01
-3.000000e-01
-3.000000e-01
-3.000000e-01
-3.000000e-01
-3.000000e-01
-3.000000e-01
-3.000000e-01
-3.000000e-01
-3.000000e-01
-3.000000e-01
-3.000000e-01
-3.000000e-01
-3.000000e-01
-3.000000e-01
-3.000000e-01
-3.000000e-01
-3.000000e-01
-3.000000e-01
-3.000000e-01
-3.000000e-01
-3.000000e-01
-3.000000e-01
-3.000000e-01
-3.000000e-01
-3.000000e-01
-3.000000e-01
-3.000000e-01
-3.000000e-01
-3.000000e-01
-3.000000e-01
-3.000000e-01
-3.000000e-01
-3.000000e-01
-3.000000e-01
-3.000000e-01
-3.000000e-01
-3.000000e-01
-3.000000e-01
-3.000000e-01
-3.000000e-01
-3.000000e-01
-3.000000e-01
-3.000000e-01
-3.000000e-01
-3.000000e-01
-3.000000e-01
-3.000000e-01
-3.000000e-01
-3.000000e-01
-3.000000e-01
-3.000000e-01
-3.000000e-01
-3.000000e-01
-3.000000e-01
-3.000000e-01
-3.000000e-01
-3.000000e-01
-3.000000e-01
-3.000000e-01
-3.000000e-01
-3.000000e-01
-3.000000e-01
-3.000000e-01
-3.000000e-01
-3.000000e-01
-3.000000e-01
-3.000000e-01
-3.000000e-01
-3.000000e-01
-3.000000e-01
-3.000000e-01
-3.000000e-01
-3.000000e-01
-3.000000e-01
-3.000000e-01
-3.000000e-01
-3.000000e-01
-3.000000e-01
-3.000000e-01
-3.000000e-01
-3.000000e-01
-3.000000e-01
-3.000000e-01
-3.000000e-01
-3.000000e-01
-3.000000e-01
-3.000000e-01
-3.000000e-01
-3.000000e-01
-3.000000e-01
-3.000000e-01
-3.000000e-01
-3.000000e-01
-3.000000e-01
-3.000000e-01
-3.000000e-01
-3.000000e-01
-3.000000e-01
-3.000000e-01
-3.000000e-01
-3.000000e-01
-3.000000e-01
-3.000000e-01
-3.000000e-01
-3.000000e-01
-3.000000e-01
-3.000000e-01
-3.000000e-01
-3.000000e-01
-3.000000e-01
-3.000000e-01
-3.000000e-01
-3.000000e-01
-3.000000e-01
-3.000000e-01
-3.000000e-01
-3.000000e-01
-3.000000e-01
-3.000000e-01
-3.000000e-01
-3.000000e-01
-3.000000e-01
-3.000000e-01
-3.000000e-01
-3.000000e-01
-3.000000e-01
-3.000000e-01
-3.000000e-01
-3.000000e-01
-3.000000e-01
-3.000000e-01
-3.000000e-01
-3.000000e-01
-3.000000e-01
-3.000000e-01
-3.000000e-01
-3.000000e-01
-3.000000e-01
-3.000000e-01
-3.000000e-01
-3.000000e-01
-3.000000e-01
-3.000000e-01
-3.000000e-01
-3.000000e-01
-3.000000e-01
-3.000000e-01
-3.000000e-01
-3.000000e-01
-3.000000e-01
-3.000000e-01
-3.000000e-01
-3.000000e-01
-3.000000e-01
-3.000000e-01
-3.000000e-01
-3.000000e-01
-3.000000e-01
-3.000000e-01
-3.000000e-01
-3.000000e-01
-3.000000e-01
-3.000000e-01
-3.000000e-01
-3.000000e-01
-3.000000e-01
-3.000000e-01
-3.000000e-01
-3.000000e-01
-3.000000e-01
-3.000000e-01
-3.000000e-01
-3.000000e-01
-3.000000e-01
-3.000000e-01
-3.000000e-01
-3.000000e-01
-3.000000e-01
-3.000000e-01
-3.000000e-01
-3.000000e-01
-3.000000e-01
-3.000000e-01
-3.000000e-01
-3.000000e-01
-3.000000e-01
-3.000000e-01
-3.000000e-01
-3.000000e-01
-3.000000e-01
-3.000000e-01
-3.000000e-01
-3.000000e-01
-3.000000e-01
-3.000000e-01
-3.000000e-01
-3.000000e-01
-3.000000e-01
-3.000000e-01
-3.000000e-01
-3.000000e-01
-3.000000e-01
-3.000000e-01
-3.000000e-01
-3.000000e-01
-3.000000e-01
-3.000000e-01
-3.000000e-01
-3.000000e-01
-3.000000e-01
-3.000000e-01
-3.000000e-01
-3.000000e-01
-3.000000e-01
-3.000000e-01
-3.000000e-01
-3.000000e-01
-3.000000e-01
-3.000000e-01
-3.000000e-01
-3.000000e-01
-3.000000e-01
-3.000000e-01